 vasp.5.4.4.18Apr17-6-g9f103f2a35 (build Sep 03 2018 23:53:05) complex          
  
 executed on             LinuxIFC date 2021.11.28  03:23:24
 running on    1 total cores
 distrk:  each k-point on    1 cores,    1 groups
 distr:  one band on NCORES_PER_BAND=   1 cores,    1 groups


--------------------------------------------------------------------------------------------------------


 INCAR:
 POTCAR:    PAW_PBE Pd 04Jan2005                  
 POTCAR:    PAW_PBE C 08Apr2002                   
 POTCAR:    PAW_PBE O 08Apr2002                   
 POTCAR:    PAW_PBE Pd 04Jan2005                  
   VRHFIN =Pd : s1 d9                                                           
   LEXCH  = PE                                                                  
   EATOM  =   809.7530 eV,   59.5152 Ry                                         
                                                                                
   TITEL  = PAW_PBE Pd 04Jan2005                                                
   LULTRA =        F    use ultrasoft PP ?                                      
   IUNSCR =        1    unscreen: 0-lin 1-nonlin 2-no                           
   RPACOR =    2.000    partial core radius                                     
   POMASS =  106.420; ZVAL   =   10.000    mass and valenz                      
   RCORE  =    2.600    outmost cutoff radius                                   
   RWIGS  =    2.710; RWIGS  =    1.434    wigner-seitz radius (au A)           
   ENMAX  =  250.925; ENMIN  =  188.194 eV                                      
   ICORE  =        3    local potential                                         
   LCOR   =        T    correct aug charges                                     
   LPAW   =        T    paw PP                                                  
   EAUG   =  416.230                                                            
   DEXC   =    0.000                                                            
   RMAX   =    2.653    core radius for proj-oper                               
   RAUG   =    1.300    factor for augmentation sphere                          
   RDEP   =    2.734    radius for radial grids                                 
   RDEPT  =    2.103    core radius for aug-charge                              
                                                                                
   Atomic configuration                                                         
   12 entries                                                                   
     n  l   j            E        occ.                                          
     1  0  0.50    -24164.6631   2.0000                                         
     2  0  0.50     -3530.9218   2.0000                                         
     2  1  1.50     -3165.6822   6.0000                                         
     3  0  0.50      -639.4577   2.0000                                         
     3  1  1.50      -519.4532   6.0000                                         
     3  2  2.50      -328.9757  10.0000                                         
     4  0  0.50       -88.7014   2.0000                                         
     4  1  1.50       -54.4540   6.0000                                         
     4  2  2.50        -6.6878   9.0000                                         
     5  0  0.50        -4.3543   1.0000                                         
     5  1  0.50        -1.3606   0.0000                                         
     4  3  2.50        -1.3606   0.0000                                         
   Description                                                                  
     l       E           TYP  RCUT    TYP  RCUT                                 
     2     -6.6878251     23  2.400                                             
     2     -8.0484077     23  2.400                                             
     0     -4.3542939     23  2.400                                             
     0      4.3406793     23  2.400                                             
     1     -4.0817478     23  2.600                                             
     1     15.8380318     23  2.600                                             
     3     -4.0817478     23  2.400                                             
  local pseudopotential read in
  partial core-charges read in
  partial kinetic energy density read in
  atomic valenz-charges read in
  non local Contribution for L=           2  read in
    real space projection operators read in
  non local Contribution for L=           2  read in
    real space projection operators read in
  non local Contribution for L=           0  read in
    real space projection operators read in
  non local Contribution for L=           0  read in
    real space projection operators read in
  non local Contribution for L=           1  read in
    real space projection operators read in
  non local Contribution for L=           1  read in
    real space projection operators read in
    PAW grid and wavefunctions read in
 
   number of l-projection  operators is LMAX  =           6
   number of lm-projection operators is LMMAX =          18
 
 POTCAR:    PAW_PBE C 08Apr2002                   
   VRHFIN =C: s2p2                                                              
   LEXCH  = PE                                                                  
   EATOM  =   147.1560 eV,   10.8157 Ry                                         
                                                                                
   TITEL  = PAW_PBE C 08Apr2002                                                 
   LULTRA =        F    use ultrasoft PP ?                                      
   IUNSCR =        1    unscreen: 0-lin 1-nonlin 2-no                           
   RPACOR =    1.200    partial core radius                                     
   POMASS =   12.011; ZVAL   =    4.000    mass and valenz                      
   RCORE  =    1.500    outmost cutoff radius                                   
   RWIGS  =    1.630; RWIGS  =    0.863    wigner-seitz radius (au A)           
   ENMAX  =  400.000; ENMIN  =  300.000 eV                                      
   ICORE  =        2    local potential                                         
   LCOR   =        T    correct aug charges                                     
   LPAW   =        T    paw PP                                                  
   EAUG   =  644.873                                                            
   DEXC   =    0.000                                                            
   RMAX   =    1.529    core radius for proj-oper                               
   RAUG   =    1.300    factor for augmentation sphere                          
   RDEP   =    1.501    radius for radial grids                                 
   RDEPT  =    1.300    core radius for aug-charge                              
                                                                                
   Atomic configuration                                                         
    4 entries                                                                   
     n  l   j            E        occ.                                          
     1  0  0.50      -273.3789   2.0000                                         
     2  0  0.50       -13.7508   2.0000                                         
     2  1  0.50        -5.2854   2.0000                                         
     3  2  1.50        -5.4423   0.0000                                         
   Description                                                                  
     l       E           TYP  RCUT    TYP  RCUT                                 
     0    -13.7508458     23  1.200                                             
     0     -8.2022199     23  1.200                                             
     1     -5.2854383     23  1.500                                             
     1     34.0145650     23  1.500                                             
     2     -5.4423304      7  1.500                                             
  local pseudopotential read in
  partial core-charges read in
  partial kinetic energy density read in
  atomic valenz-charges read in
  non local Contribution for L=           0  read in
    real space projection operators read in
  non local Contribution for L=           0  read in
    real space projection operators read in
  non local Contribution for L=           1  read in
    real space projection operators read in
  non local Contribution for L=           1  read in
    real space projection operators read in
    PAW grid and wavefunctions read in
 
   number of l-projection  operators is LMAX  =           4
   number of lm-projection operators is LMMAX =           8
 
 POTCAR:    PAW_PBE O 08Apr2002                   
   VRHFIN =O: s2p4                                                              
   LEXCH  = PE                                                                  
   EATOM  =   432.3788 eV,   31.7789 Ry                                         
                                                                                
   TITEL  = PAW_PBE O 08Apr2002                                                 
   LULTRA =        F    use ultrasoft PP ?                                      
   IUNSCR =        1    unscreen: 0-lin 1-nonlin 2-no                           
   RPACOR =    1.200    partial core radius                                     
   POMASS =   16.000; ZVAL   =    6.000    mass and valenz                      
   RCORE  =    1.520    outmost cutoff radius                                   
   RWIGS  =    1.550; RWIGS  =    0.820    wigner-seitz radius (au A)           
   ENMAX  =  400.000; ENMIN  =  300.000 eV                                      
   ICORE  =        2    local potential                                         
   LCOR   =        T    correct aug charges                                     
   LPAW   =        T    paw PP                                                  
   EAUG   =  605.392                                                            
   DEXC   =    0.000                                                            
   RMAX   =    1.553    core radius for proj-oper                               
   RAUG   =    1.300    factor for augmentation sphere                          
   RDEP   =    1.550    radius for radial grids                                 
   RDEPT  =    1.329    core radius for aug-charge                              
                                                                                
   Atomic configuration                                                         
    4 entries                                                                   
     n  l   j            E        occ.                                          
     1  0  0.50      -514.6923   2.0000                                         
     2  0  0.50       -23.9615   2.0000                                         
     2  1  0.50        -9.0305   4.0000                                         
     3  2  1.50        -9.5241   0.0000                                         
   Description                                                                  
     l       E           TYP  RCUT    TYP  RCUT                                 
     0    -23.9615318     23  1.200                                             
     0     -9.5240782     23  1.200                                             
     1     -9.0304911     23  1.520                                             
     1      8.1634956     23  1.520                                             
     2     -9.5240782      7  1.500                                             
  local pseudopotential read in
  partial core-charges read in
  partial kinetic energy density read in
  kinetic energy density of atom read in
  atomic valenz-charges read in
  non local Contribution for L=           0  read in
    real space projection operators read in
  non local Contribution for L=           0  read in
    real space projection operators read in
  non local Contribution for L=           1  read in
    real space projection operators read in
  non local Contribution for L=           1  read in
    real space projection operators read in
    PAW grid and wavefunctions read in
 
   number of l-projection  operators is LMAX  =           4
   number of lm-projection operators is LMMAX =           8
 
 Optimization of the real space projectors (new method)

 maximal supplied QI-value         = 14.36
 optimisation between [QCUT,QGAM] = [ 10.20, 20.39] = [ 29.12,116.47] Ry 
 Optimized for a Real-space Cutoff    1.51 Angstroem

   l    n(q)    QCUT    max X(q) W(low)/X(q) W(high)/X(q)  e(spline) 
   2      8    10.197    59.108    0.26E-03    0.14E-03    0.96E-07
   2      8    10.197    58.101    0.27E-03    0.14E-03    0.98E-07
   0      9    10.197   102.235    0.54E-04    0.60E-05    0.72E-07
   0      9    10.197    58.388    0.52E-04    0.60E-05    0.68E-07
   1      9    10.197    22.191    0.18E-03    0.25E-03    0.79E-07
   1      9    10.197    15.590    0.15E-03    0.21E-03    0.69E-07
 Optimization of the real space projectors (new method)

 maximal supplied QI-value         = 25.13
 optimisation between [QCUT,QGAM] = [ 10.05, 20.36] = [ 28.30,116.06] Ry 
 Optimized for a Real-space Cutoff    1.30 Angstroem

   l    n(q)    QCUT    max X(q) W(low)/X(q) W(high)/X(q)  e(spline) 
   0      8    10.053   115.676    0.49E-03    0.72E-03    0.18E-06
   0      8    10.053    87.132    0.49E-03    0.71E-03    0.18E-06
   1      7    10.053     4.429    0.32E-03    0.31E-03    0.18E-06
   1      7    10.053     2.733    0.23E-03    0.19E-03    0.20E-06
 Optimization of the real space projectors (new method)

 maximal supplied QI-value         = 24.76
 optimisation between [QCUT,QGAM] = [ 10.15, 20.30] = [ 28.85,115.39] Ry 
 Optimized for a Real-space Cutoff    1.38 Angstroem

   l    n(q)    QCUT    max X(q) W(low)/X(q) W(high)/X(q)  e(spline) 
   0      8    10.150    20.381    0.22E-03    0.32E-03    0.29E-06
   0      8    10.150    15.268    0.23E-03    0.35E-03    0.30E-06
   1      8    10.150     5.964    0.46E-03    0.53E-03    0.21E-06
   1      8    10.150     5.382    0.38E-03    0.45E-03    0.19E-06

 ----------------------------------------------------------------------------- 
|                                                                             |
|  ADVICE TO THIS USER RUNNING 'VASP/VAMP'   (HEAR YOUR MASTER'S VOICE ...):  |
|                                                                             |
|      You enforced a specific xc-type in the INCAR file,                     |
|      a different type was found on the POTCAR file                          |
|          I HOPE YOU KNOW, WHAT YOU ARE  DOING                               |
|                                                                             |
 ----------------------------------------------------------------------------- 

  PAW_PBE Pd 04Jan2005                  :
 energy of atom  1       EATOM= -809.7530
 kinetic energy error for atom=    0.0091 (will be added to EATOM!!)
  PAW_PBE C 08Apr2002                   :
 energy of atom  2       EATOM= -147.1560
 kinetic energy error for atom=    0.0288 (will be added to EATOM!!)
  PAW_PBE O 08Apr2002                   :
 energy of atom  3       EATOM= -432.3788
 kinetic energy error for atom=    0.1156 (will be added to EATOM!!)
 
 
 POSCAR: Pd55PES                                 
  positions in cartesian coordinates
  No initial velocities read in
 exchange correlation table for  LEXCH =        9
   RHO(1)=    0.500       N(1)  =     2000
   RHO(2)=  100.500       N(2)  =     4000
 


--------------------------------------------------------------------------------------------------------


 ion  position               nearest neighbor table
   1  0.446  0.328  0.417-   3 3.25   5 3.25   7 3.36  15 3.36  29 3.42  28 3.42
   2  0.672  0.554  0.417-  26 3.25  30 3.25  17 3.36   9 3.36  47 3.42  49 3.42
   3  0.554  0.328  0.417-   1 3.25   5 3.25   7 3.36  11 3.36  29 3.42  21 3.42
   4  0.328  0.554  0.417-  32 3.25  22 3.25  13 3.36   8 3.36  43 3.42  48 3.42
   5  0.500  0.383  0.340-   1 3.25   3 3.25  11 3.36  15 3.36  21 3.42  28 3.42
   6  0.500  0.383  0.660-  24 3.25  19 3.25  16 3.36  12 3.36  42 3.42  44 3.42
   7  0.500  0.276  0.500-  29 3.24   3 3.36   1 3.36  19 3.36  24 3.36
   8  0.276  0.500  0.500-  48 3.24  22 3.36  40 3.36   4 3.36  25 3.36
   9  0.724  0.500  0.500-  49 3.24  26 3.36  45 3.36   2 3.36  20 3.36
  10  0.500  0.724  0.500-  55 3.24  27 3.36  23 3.36  46 3.36  41 3.36
  11  0.612  0.388  0.342-  21 3.24   5 3.36   3 3.36  30 3.36  26 3.36
  12  0.612  0.388  0.658-  42 3.24  24 3.36  45 3.36   6 3.36  31 3.36
  13  0.388  0.612  0.342-  43 3.24  32 3.36  50 3.36   4 3.36  27 3.36
  14  0.388  0.612  0.658-  53 3.24  25 3.36  33 3.36  51 3.36  46 3.36
  15  0.388  0.388  0.342-  28 3.24   5 3.36   1 3.36  32 3.36  22 3.36
  16  0.388  0.388  0.658-  44 3.24  19 3.36  40 3.36   6 3.36  33 3.36
  17  0.612  0.612  0.342-  47 3.24  30 3.36  50 3.36   2 3.36  23 3.36
  18  0.612  0.612  0.658-  54 3.24  31 3.36  20 3.36  51 3.36  41 3.36
  19  0.446  0.328  0.583-   6 3.25  24 3.25  16 3.36   7 3.36  44 3.42  29 3.42
  20  0.672  0.554  0.583-  31 3.25  45 3.25  18 3.36   9 3.36  54 3.42  49 3.42
  21  0.558  0.442  0.418-  11 3.24   5 3.42   3 3.42  30 3.42  26 3.42
  22  0.328  0.446  0.417-   4 3.25  32 3.25   8 3.36  15 3.36  48 3.42  28 3.42
  23  0.554  0.672  0.417-  27 3.25  50 3.25  10 3.36  17 3.36  55 3.42  47 3.42
  24  0.554  0.328  0.583-  56 2.35   6 3.25  19 3.25  12 3.36   7 3.36  42 3.42  29 3.42
  25  0.328  0.554  0.583-  33 3.25  40 3.25  14 3.36   8 3.36  53 3.42  48 3.42
  26  0.672  0.446  0.417-   2 3.25  30 3.25   9 3.36  11 3.36  49 3.42  21 3.42
  27  0.446  0.672  0.417-  23 3.25  50 3.25  10 3.36  13 3.36  55 3.42  43 3.42
  28  0.442  0.442  0.418-  15 3.24   5 3.42   1 3.42  32 3.42  22 3.42
  29  0.500  0.384  0.500-   7 3.24   3 3.42   1 3.42  24 3.42  19 3.42
  30  0.617  0.500  0.340-   2 3.25  26 3.25  17 3.36  11 3.36  47 3.42  21 3.42
  31  0.617  0.500  0.660-  20 3.25  45 3.25  18 3.36  12 3.36  54 3.42  42 3.42
  32  0.383  0.500  0.340-   4 3.25  22 3.25  13 3.36  15 3.36  43 3.42  28 3.42
  33  0.383  0.500  0.660-  25 3.25  40 3.25  14 3.36  16 3.36  53 3.42  44 3.42
  34  0.383  0.383  0.500-
  35  0.617  0.617  0.500-
  36  0.617  0.383  0.500-
  37  0.383  0.617  0.500-
  38  0.500  0.500  0.335-
  39  0.500  0.500  0.665-
  40  0.328  0.446  0.583-  33 3.25  25 3.25  16 3.36   8 3.36  44 3.42  48 3.42
  41  0.554  0.672  0.583-  46 3.25  51 3.25  10 3.36  18 3.36  54 3.42  55 3.42
  42  0.558  0.442  0.582-  12 3.24   6 3.42  24 3.42  31 3.42  45 3.42
  43  0.442  0.558  0.418-  13 3.24   4 3.42  32 3.42  27 3.42  50 3.42
  44  0.442  0.442  0.582-  16 3.24   6 3.42  19 3.42  33 3.42  40 3.42
  45  0.672  0.446  0.583-  20 3.25  31 3.25   9 3.36  12 3.36  49 3.42  42 3.42
  46  0.446  0.672  0.583-  41 3.25  51 3.25  10 3.36  14 3.36  53 3.42  55 3.42
  47  0.558  0.558  0.418-  17 3.24   2 3.42  30 3.42  23 3.42  50 3.42
  48  0.384  0.500  0.500-   8 3.24   4 3.42  22 3.42  25 3.42  40 3.42
  49  0.616  0.500  0.500-   9 3.24   2 3.42  26 3.42  20 3.42  45 3.42
  50  0.500  0.617  0.340-  27 3.25  23 3.25  13 3.36  17 3.36  43 3.42  47 3.42
  51  0.500  0.617  0.660-  41 3.25  46 3.25  14 3.36  18 3.36  53 3.42  54 3.42
  52  0.500  0.500  0.500-
  53  0.442  0.558  0.582-  14 3.24  25 3.42  33 3.42  51 3.42  46 3.42
  54  0.558  0.558  0.582-  18 3.24  31 3.42  20 3.42  51 3.42  41 3.42
  55  0.500  0.616  0.500-  10 3.24  23 3.42  27 3.42  41 3.42  46 3.42
  56  0.526  0.282  0.640-  57 1.13  24 2.35
  57  0.530  0.250  0.660-  56 1.13
 
  LATTYP: Found a simple cubic cell.
 ALAT       =    30.0000000000
  
  Lattice vectors:
  
 A1 = (  30.0000000000,   0.0000000000,   0.0000000000)
 A2 = (   0.0000000000,  30.0000000000,   0.0000000000)
 A3 = (   0.0000000000,   0.0000000000,  30.0000000000)


Analysis of symmetry for initial positions (statically):
=====================================================================
 Subroutine PRICEL returns:
 Original cell was already a primitive cell.
 

 Routine SETGRP: Setting up the symmetry group for a 
 simple cubic supercell.


 Subroutine GETGRP returns: Found  1 space group operations
 (whereof  1 operations were pure point group operations)
 out of a pool of 48 trial point group operations.


The static configuration has the point symmetry C_1 .


Analysis of symmetry for dynamics (positions and initial velocities):
=====================================================================
 Subroutine PRICEL returns:
 Original cell was already a primitive cell.
 

 Routine SETGRP: Setting up the symmetry group for a 
 simple cubic supercell.


 Subroutine GETGRP returns: Found  1 space group operations
 (whereof  1 operations were pure point group operations)
 out of a pool of 48 trial point group operations.


The dynamic configuration has the point symmetry C_1 .


Analysis of constrained symmetry for selective dynamics:
=====================================================================
 Subroutine PRICEL returns:
 Original cell was already a primitive cell.
 

 Routine SETGRP: Setting up the symmetry group for a 
 simple cubic supercell.


 Subroutine GETGRP returns: Found  1 space group operations
 (whereof  1 operations were pure point group operations)
 out of a pool of 48 trial point group operations.


The constrained configuration has the point symmetry C_1 .


 Subroutine INISYM returns: Found  1 space group operations
 (whereof  1 operations are pure point group operations),
 and found     1 'primitive' translations

 
 
 KPOINTS: K-points                                

Automatic generation of k-mesh.
Space group operators:
 irot       det(A)        alpha          n_x          n_y          n_z        tau_x        tau_y        tau_z
    1     1.000000     0.000000     1.000000     0.000000     0.000000     0.000000     0.000000     0.000000
 
 Subroutine IBZKPT returns following result:
 ===========================================
 
 Found      1 irreducible k-points:
 
 Following reciprocal coordinates:
            Coordinates               Weight
  0.000000  0.000000  0.000000      1.000000
 
 Following cartesian coordinates:
            Coordinates               Weight
  0.000000  0.000000  0.000000      1.000000
 


--------------------------------------------------------------------------------------------------------




 Dimension of arrays:
   k-points           NKPTS =      1   k-points in BZ     NKDIM =      1   number of bands    NBANDS=    336
   number of dos      NEDOS =    301   number of ions     NIONS =     57
   non local maximal  LDIM  =      6   non local SUM 2l+1 LMDIM =     18
   total plane-waves  NPLWV = ******
   max r-space proj   IRMAX =   1847   max aug-charges    IRDMAX=   6262
   dimension x,y,z NGX =   150 NGY =  150 NGZ =  150
   dimension x,y,z NGXF=   300 NGYF=  300 NGZF=  300
   support grid    NGXF=   300 NGYF=  300 NGZF=  300
   ions per type =              55   1   1
   NGX,Y,Z   is equivalent  to a cutoff of   8.31,  8.31,  8.31 a.u.
   NGXF,Y,Z  is equivalent  to a cutoff of  16.62, 16.62, 16.62 a.u.

 SYSTEM =  6_Pd100_top_free_z(O)                   
 POSCAR =  Pd55PES                                 

 Startparameter for this run:
   NWRITE =      2    write-flag & timer
   PREC   = normal    normal or accurate (medium, high low for compatibility)
   ISTART =      0    job   : 0-new  1-cont  2-samecut
   ICHARG =      2    charge: 1-file 2-atom 10-const
   ISPIN  =      1    spin polarized calculation?
   LNONCOLLINEAR =      F non collinear calculations
   LSORBIT =      F    spin-orbit coupling
   INIWAV =      1    electr: 0-lowe 1-rand  2-diag
   LASPH  =      F    aspherical Exc in radial PAW
   METAGGA=      F    non-selfconsistent MetaGGA calc.

 Electronic Relaxation 1
   ENCUT  =  400.0 eV  29.40 Ry    5.42 a.u.  48.92 48.92 48.92*2*pi/ulx,y,z
   ENINI  =  400.0     initial cutoff
   ENAUG  =  644.9 eV  augmentation charge cutoff
   NELM   =    100;   NELMIN=  6; NELMDL= -5     # of ELM steps 
   EDIFF  = 0.1E-03   stopping-criterion for ELM
   LREAL  =      T    real-space projection
   NLSPLINE    = F    spline interpolate recip. space projectors
   LCOMPAT=      F    compatible to vasp.4.4
   GGA_COMPAT  = T    GGA compatible to vasp.4.4-vasp.4.6
   LMAXPAW     = -100 max onsite density
   LMAXMIX     =    2 max onsite mixed and CHGCAR
   VOSKOWN=      0    Vosko Wilk Nusair interpolation
   ROPT   =   -0.00050  -0.00050  -0.00050
 Ionic relaxation
   EDIFFG = -.5E-01   stopping-criterion for IOM
   NSW    =      0    number of steps for IOM
   NBLOCK =      1;   KBLOCK =      1    inner block; outer block 
   IBRION =     -1    ionic relax: 0-MD 1-quasi-New 2-CG
   NFREE  =      1    steps in history (QN), initial steepest desc. (CG)
   ISIF   =      2    stress and relaxation
   IWAVPR =     10    prediction:  0-non 1-charg 2-wave 3-comb
   ISYM   =      2    0-nonsym 1-usesym 2-fastsym
   LCORR  =      T    Harris-Foulkes like correction to forces

   POTIM  = 0.5000    time-step for ionic-motion
   TEIN   =    0.0    initial temperature
   TEBEG  =    0.0;   TEEND  =   0.0 temperature during run
   SMASS  =  -3.00    Nose mass-parameter (am)
   estimated Nose-frequenzy (Omega)   =  0.10E-29 period in steps =****** mass=  -0.206E-25a.u.
   SCALEE = 1.0000    scale energy and forces
   NPACO  =    256;   APACO  = 16.0  distance and # of slots for P.C.
   PSTRESS=    0.0 pullay stress

  Mass of Ions in am
   POMASS = 106.42 12.01 16.00
  Ionic Valenz
   ZVAL   =  10.00  4.00  6.00
  Atomic Wigner-Seitz radii
   RWIGS  =  -1.00 -1.00 -1.00
  virtual crystal weights 
   VCA    =   1.00  1.00  1.00
   NELECT =     560.0000    total number of electrons
   NUPDOWN=      -1.0000    fix difference up-down

 DOS related values:
   EMIN   =  10.00;   EMAX   =-10.00  energy-range for DOS
   EFERMI =   0.00
   ISMEAR =     2;   SIGMA  =   0.20  broadening in eV -4-tet -1-fermi 0-gaus

 Electronic relaxation 2 (details)
   IALGO  =     68    algorithm
   LDIAG  =      T    sub-space diagonalisation (order eigenvalues)
   LSUBROT=      F    optimize rotation matrix (better conditioning)
   TURBO    =      0    0=normal 1=particle mesh
   IRESTART =      0    0=no restart 2=restart with 2 vectors
   NREBOOT  =      0    no. of reboots
   NMIN     =      0    reboot dimension
   EREF     =   0.00    reference energy to select bands
   IMIX   =      4    mixing-type and parameters
     AMIX     =   0.40;   BMIX     =  1.00
     AMIX_MAG =   1.60;   BMIX_MAG =  1.00
     AMIN     =   0.10
     WC   =   100.;   INIMIX=   1;  MIXPRE=   1;  MAXMIX= -45

 Intra band minimization:
   WEIMIN = 0.0000     energy-eigenvalue tresh-hold
   EBREAK =  0.74E-07  absolut break condition
   DEPER  =   0.30     relativ break condition  

   TIME   =   0.40     timestep for ELM

  volume/ion in A,a.u.               =     473.68      3196.58
  Fermi-wavevector in a.u.,A,eV,Ry     =   0.449797  0.849992  2.752691  0.202317
  Thomas-Fermi vector in A             =   1.430086
 
 Write flags
   LWAVE        =      F    write WAVECAR
   LDOWNSAMPLE  =      F    k-point downsampling of WAVECAR
   LCHARG       =      F    write CHGCAR
   LVTOT        =      F    write LOCPOT, total local potential
   LVHAR        =      F    write LOCPOT, Hartree potential only
   LELF         =      F    write electronic localiz. function (ELF)
   LORBIT       =      0    0 simple, 1 ext, 2 COOP (PROOUT), +10 PAW based schemes


 Dipole corrections
   LMONO  =      F    monopole corrections only (constant potential shift)
   LDIPOL =      F    correct potential (dipole corrections)
   IDIPOL =      0    1-x, 2-y, 3-z, 4-all directions 
   EPSILON=  1.0000000 bulk dielectric constant

 Exchange correlation treatment:
   GGA     =    RP    GGA type
   LEXCH   =     9    internal setting for exchange type
   VOSKOWN=      0    Vosko Wilk Nusair interpolation
   LHFCALC =     F    Hartree Fock is set to
   LHFONE  =     F    Hartree Fock one center treatment
   AEXX    =    0.0000 exact exchange contribution

 Linear response parameters
   LEPSILON=     F    determine dielectric tensor
   LRPA    =     F    only Hartree local field effects (RPA)
   LNABLA  =     F    use nabla operator in PAW spheres
   LVEL    =     F    velocity operator in full k-point grid
   LINTERFAST=   F  fast interpolation
   KINTER  =     0    interpolate to denser k-point grid
   CSHIFT  =0.1000    complex shift for real part using Kramers Kronig
   OMEGAMAX=  -1.0    maximum frequency
   DEG_THRESHOLD= 0.2000000E-02 threshold for treating states as degnerate
   RTIME   =   -0.100 relaxation time in fs
  (WPLASMAI=    0.000 imaginary part of plasma frequency in eV, 0.658/RTIME)
   DFIELD  = 0.0000000 0.0000000 0.0000000 field for delta impulse in time
 
 Orbital magnetization related:
   ORBITALMAG=     F  switch on orbital magnetization
   LCHIMAG   =     F  perturbation theory with respect to B field
   DQ        =  0.001000  dq finite difference perturbation B field
   LLRAUG    =     F  two centre corrections for induced B field



--------------------------------------------------------------------------------------------------------


 Static calculation
 charge density and potential will be updated during run
 non-spin polarized calculation
 RMM-DIIS sequential band-by-band and
  variant of blocked Davidson during initial phase
 perform sub-space diagonalisation
    before iterative eigenvector-optimisation
 modified Broyden-mixing scheme, WC =      100.0
 initial mixing is a Kerker type mixing with AMIX =  0.4000 and BMIX =      1.0000
 Hartree-type preconditioning will be used
 using additional bands           56
 real space projection scheme for non local part
 use partial core corrections
 calculate Harris-corrections to forces 
   (improved forces if not selfconsistent)
 use gradient corrections 
 use of overlap-Matrix (Vanderbilt PP)
 Methfessel and Paxton  Order N= 2 SIGMA  =   0.20


--------------------------------------------------------------------------------------------------------


  energy-cutoff  :      400.00
  volume of cell :    27000.00
      direct lattice vectors                 reciprocal lattice vectors
    30.000000000  0.000000000  0.000000000     0.033333333  0.000000000  0.000000000
     0.000000000 30.000000000  0.000000000     0.000000000  0.033333333  0.000000000
     0.000000000  0.000000000 30.000000000     0.000000000  0.000000000  0.033333333

  length of vectors
    30.000000000 30.000000000 30.000000000     0.033333333  0.033333333  0.033333333


 
 k-points in units of 2pi/SCALE and weight: K-points                                
   0.00000000  0.00000000  0.00000000       1.000
 
 k-points in reciprocal lattice and weights: K-points                                
   0.00000000  0.00000000  0.00000000       1.000
 
 position of ions in fractional coordinates (direct lattice) 
   0.44576020  0.32826710  0.41691983
   0.67173288  0.55423978  0.41691983
   0.55423980  0.32826710  0.41691983
   0.32826712  0.55423978  0.41691983
   0.50000000  0.38250690  0.34021317
   0.50000000  0.38250690  0.65978680
   0.50000000  0.27609440  0.50000000
   0.27609443  0.49999998  0.50000000
   0.72390557  0.49999998  0.50000000
   0.50000000  0.72390555  0.50000000
   0.61195280  0.38804720  0.34167483
   0.61195280  0.38804720  0.65832513
   0.38804722  0.61195278  0.34167483
   0.38804722  0.61195278  0.65832513
   0.38804720  0.38804720  0.34167483
   0.38804720  0.38804720  0.65832513
   0.61195278  0.61195278  0.34167483
   0.61195278  0.61195278  0.65832513
   0.44576020  0.32826710  0.58308023
   0.67173288  0.55423978  0.58308023
   0.55791699  0.44208301  0.41809300
   0.32826705  0.44576024  0.41691983
   0.55423973  0.67173293  0.41691983
   0.55423980  0.32826710  0.58308023
   0.32826712  0.55423978  0.58308023
   0.67173295  0.44576024  0.41691983
   0.44576027  0.67173293  0.41691983
   0.44208301  0.44208301  0.41809300
   0.50000000  0.38416601  0.50000000
   0.61749315  0.50000005  0.34021317
   0.61749315  0.50000005  0.65978680
   0.38250685  0.50000005  0.34021317
   0.38250685  0.50000005  0.65978680
   0.38317830  0.38317830  0.50000000
   0.61682172  0.61682172  0.50000000
   0.61682170  0.38317830  0.50000000
   0.38317828  0.61682172  0.50000000
   0.50000000  0.50000000  0.33478917
   0.50000000  0.50000000  0.66521087
   0.32826705  0.44576024  0.58308023
   0.55423973  0.67173293  0.58308023
   0.55791699  0.44208301  0.58190703
   0.44208298  0.55791702  0.41809300
   0.44208301  0.44208301  0.58190703
   0.67173295  0.44576024  0.58308023
   0.44576027  0.67173293  0.58308023
   0.55791702  0.55791702  0.41809300
   0.38416599  0.50000002  0.50000000
   0.61583401  0.50000002  0.50000000
   0.50000000  0.61749319  0.34021317
   0.50000000  0.61749319  0.65978680
   0.50000000  0.50000000  0.50000000
   0.44208298  0.55791702  0.58190703
   0.55791702  0.55791702  0.58190703
   0.50000000  0.61583404  0.50000000
   0.52622037  0.28195203  0.63953513
   0.53000937  0.25044283  0.65969880
 
 position of ions in cartesian coordinates  (Angst):
  13.37280588  9.84801292 12.50759500
  20.15198637 16.62719342 12.50759500
  16.62719412  9.84801292 12.50759500
   9.84801363 16.62719342 12.50759500
  15.00000000 11.47520705 10.20639500
  15.00000000 11.47520705 19.79360400
  15.00000000  8.28283206 15.00000000
   8.28283277 14.99999929 15.00000000
  21.71716723 14.99999929 15.00000000
  15.00000000 21.71716652 14.99999999
  18.35858397 11.64141603 10.25024500
  18.35858397 11.64141603 19.74975399
  11.64141674 18.35858326 10.25024500
  11.64141674 18.35858326 19.74975400
  11.64141603 11.64141603 10.25024500
  11.64141603 11.64141603 19.74975400
  18.35858326 18.35858326 10.25024500
  18.35858326 18.35858326 19.74975400
  13.37280588  9.84801291 17.49240700
  20.15198638 16.62719341 17.49240700
  16.73750985 13.26249015 12.54279000
   9.84801151 13.37280729 12.50759500
  16.62719200 20.15198779 12.50759500
  16.62719412  9.84801292 17.49240700
   9.84801363 16.62719342 17.49240700
  20.15198849 13.37280729 12.50759500
  13.37280800 20.15198779 12.50759500
  13.26249015 13.26249015 12.54279000
  15.00000000 11.52498029 15.00000000
  18.52479437 15.00000140 10.20639500
  18.52479437 15.00000141 19.79360400
  11.47520562 15.00000141 10.20639501
  11.47520563 15.00000141 19.79360400
  11.49534898 11.49534898 15.00000000
  18.50465172 18.50465172 15.00000000
  18.50465102 11.49534898 15.00000000
  11.49534828 18.50465172 15.00000000
  15.00000000 15.00000000 10.04367500
  15.00000000 15.00000000 19.95632599
   9.84801151 13.37280729 17.49240700
  16.62719200 20.15198779 17.49240700
  16.73750985 13.26249015 17.45721100
  13.26248944 16.73751056 12.54279001
  13.26249015 13.26249015 17.45721100
  20.15198849 13.37280729 17.49240699
  13.37280800 20.15198779 17.49240700
  16.73751056 16.73751056 12.54279000
  11.52497959 15.00000071 15.00000000
  18.47502041 15.00000071 15.00000000
  14.99999999 18.52479579 10.20639500
  15.00000000 18.52479578 19.79360400
  15.00000000 15.00000000 15.00000000
  13.26248944 16.73751057 17.45721101
  16.73751056 16.73751057 17.45721100
  15.00000000 18.47502112 15.00000000
  15.78661100  8.45856100 19.18605400
  15.90028100  7.51328500 19.79096400
 


--------------------------------------------------------------------------------------------------------


 k-point  1 :   0.0000 0.0000 0.0000  plane waves:  490521

 maximum and minimum number of plane-waves per node :    490521   490521

 maximum number of plane-waves:    490521
 maximum index in each direction: 
   IXMAX=   48   IYMAX=   48   IZMAX=   48
   IXMIN=  -48   IYMIN=  -48   IZMIN=  -48


 serial   3D FFT for wavefunctions
 parallel 3D FFT for charge:
    minimum data exchange during FFTs selected (reduces bandwidth)


 total amount of memory used by VASP MPI-rank0  5486941. kBytes
=======================================================================

   base      :      30000. kBytes
   nonlr-proj:      17126. kBytes
   fftplans  :     924480. kBytes
   grid      :    1872000. kBytes
   one-center:        886. kBytes
   wavefun   :    2642449. kBytes
 
     INWAV:  cpu time    0.0001: real time    0.0004
 Broyden mixing: mesh for mixing (old mesh)
   NGX = 97   NGY = 97   NGZ = 97
  (NGX  =300   NGY  =300   NGZ  =300)
  gives a total of 912673 points

 initial charge density was supplied:
 charge density of overlapping atoms calculated
 number of electron     560.0000000 magnetization 
 keeping initial charge density in first step


--------------------------------------------------------------------------------------------------------


 Maximum index for non-local projection operator         1763
 Maximum index for augmentation-charges         5898 (set IRDMAX)


--------------------------------------------------------------------------------------------------------


 First call to EWALD:  gamma=   0.059
 Maximum number of real-space cells 3x 3x 3
 Maximum number of reciprocal cells 3x 3x 3

    FEWALD:  cpu time    0.0147: real time    0.0147


--------------------------------------- Iteration      1(   1)  ---------------------------------------


    POTLOK:  cpu time   14.3358: real time   14.3457
    SETDIJ:  cpu time    0.1196: real time    0.1196
     EDDAV:  cpu time  374.8835: real time  374.9465
       DOS:  cpu time    0.0013: real time    0.0013
    --------------------------------------------
      LOOP:  cpu time  389.3402: real time  389.4132

 eigenvalue-minimisations  :   688
 total energy-change (2. order) : 0.4383018E+04  (-0.1005132E+05)
 number of electron     560.0000000 magnetization 
 augmentation part      560.0000000 magnetization 

 Free energy of the ion-electron system (eV)
  ---------------------------------------------------
  alpha Z        PSCENC =        75.25431677
  Ewald energy   TEWEN  =    137921.14909054
  -Hartree energ DENC   =   -181286.97561062
  -exchange      EXHF   =         0.00000000
  -V(xc)+E(xc)   XCENC  =     -1703.57975613
  PAW double counting   =     44873.02882129   -41398.84523641
  entropy T*S    EENTRO =         0.01544283
  eigenvalues    EBANDS =       816.46516710
  atomic energy  EATOM  =     45086.50549395
  Solvation  Ediel_sol  =         0.00000000
  ---------------------------------------------------
  free energy    TOTEN  =      4383.01772932 eV

  energy without entropy =     4383.00228649  energy(sigma->0) =     4383.01386861


--------------------------------------------------------------------------------------------------------




--------------------------------------- Iteration      1(   2)  ---------------------------------------


     EDDAV:  cpu time  595.8217: real time  595.8319
       DOS:  cpu time    0.0013: real time    0.0013
    --------------------------------------------
      LOOP:  cpu time  595.8230: real time  595.8332

 eigenvalue-minimisations  :  1224
 total energy-change (2. order) :-0.2372909E+04  (-0.2136211E+04)
 number of electron     560.0000000 magnetization 
 augmentation part      560.0000000 magnetization 

 Free energy of the ion-electron system (eV)
  ---------------------------------------------------
  alpha Z        PSCENC =        75.25431677
  Ewald energy   TEWEN  =    137921.14909054
  -Hartree energ DENC   =   -181286.97561062
  -exchange      EXHF   =         0.00000000
  -V(xc)+E(xc)   XCENC  =     -1703.57975613
  PAW double counting   =     44873.02882129   -41398.84523641
  entropy T*S    EENTRO =        -0.02719589
  eigenvalues    EBANDS =     -1556.40160967
  atomic energy  EATOM  =     45086.50549395
  Solvation  Ediel_sol  =         0.00000000
  ---------------------------------------------------
  free energy    TOTEN  =      2010.10831383 eV

  energy without entropy =     2010.13550972  energy(sigma->0) =     2010.11511280


--------------------------------------------------------------------------------------------------------




--------------------------------------- Iteration      1(   3)  ---------------------------------------


     EDDAV:  cpu time  508.9520: real time  508.9662
       DOS:  cpu time    0.0011: real time    0.0011
    --------------------------------------------
      LOOP:  cpu time  508.9530: real time  508.9673

 eigenvalue-minimisations  :  1008
 total energy-change (2. order) :-0.1778910E+04  (-0.1673007E+04)
 number of electron     560.0000000 magnetization 
 augmentation part      560.0000000 magnetization 

 Free energy of the ion-electron system (eV)
  ---------------------------------------------------
  alpha Z        PSCENC =        75.25431677
  Ewald energy   TEWEN  =    137921.14909054
  -Hartree energ DENC   =   -181286.97561062
  -exchange      EXHF   =         0.00000000
  -V(xc)+E(xc)   XCENC  =     -1703.57975613
  PAW double counting   =     44873.02882129   -41398.84523641
  entropy T*S    EENTRO =        -0.03447928
  eigenvalues    EBANDS =     -3335.30406694
  atomic energy  EATOM  =     45086.50549395
  Solvation  Ediel_sol  =         0.00000000
  ---------------------------------------------------
  free energy    TOTEN  =       231.19857317 eV

  energy without entropy =      231.23305245  energy(sigma->0) =      231.20719299


--------------------------------------------------------------------------------------------------------




--------------------------------------- Iteration      1(   4)  ---------------------------------------


     EDDAV:  cpu time  433.3918: real time  433.4015
       DOS:  cpu time    0.0012: real time    0.0012
    --------------------------------------------
      LOOP:  cpu time  433.3930: real time  433.4027

 eigenvalue-minimisations  :   832
 total energy-change (2. order) :-0.3667195E+03  (-0.3121058E+03)
 number of electron     560.0000000 magnetization 
 augmentation part      560.0000000 magnetization 

 Free energy of the ion-electron system (eV)
  ---------------------------------------------------
  alpha Z        PSCENC =        75.25431677
  Ewald energy   TEWEN  =    137921.14909054
  -Hartree energ DENC   =   -181286.97561062
  -exchange      EXHF   =         0.00000000
  -V(xc)+E(xc)   XCENC  =     -1703.57975613
  PAW double counting   =     44873.02882129   -41398.84523641
  entropy T*S    EENTRO =         0.00560191
  eigenvalues    EBANDS =     -3702.06368893
  atomic energy  EATOM  =     45086.50549395
  Solvation  Ediel_sol  =         0.00000000
  ---------------------------------------------------
  free energy    TOTEN  =      -135.52096762 eV

  energy without entropy =     -135.52656954  energy(sigma->0) =     -135.52236810


--------------------------------------------------------------------------------------------------------




--------------------------------------- Iteration      1(   5)  ---------------------------------------


     EDDAV:  cpu time  521.4737: real time  521.4862
       DOS:  cpu time    0.0015: real time    0.0015
    CHARGE:  cpu time   25.8505: real time   25.8506
    MIXING:  cpu time    0.4477: real time    0.4477
    --------------------------------------------
      LOOP:  cpu time  547.7733: real time  547.7859

 eigenvalue-minimisations  :  1048
 total energy-change (2. order) :-0.4352776E+02  (-0.3594416E+02)
 number of electron     559.9999956 magnetization 
 augmentation part      245.2021632 magnetization 

 Broyden mixing:
  rms(total) = 0.13897E+01    rms(broyden)= 0.13887E+01
  rms(prec ) = 0.14953E+01
  weight for this iteration     100.00

 Free energy of the ion-electron system (eV)
  ---------------------------------------------------
  alpha Z        PSCENC =        75.25431677
  Ewald energy   TEWEN  =    137921.14909054
  -Hartree energ DENC   =   -181286.97561062
  -exchange      EXHF   =         0.00000000
  -V(xc)+E(xc)   XCENC  =     -1703.57975613
  PAW double counting   =     44873.02882129   -41398.84523641
  entropy T*S    EENTRO =         0.49552469
  eigenvalues    EBANDS =     -3746.08137101
  atomic energy  EATOM  =     45086.50549395
  Solvation  Ediel_sol  =         0.00000000
  ---------------------------------------------------
  free energy    TOTEN  =      -179.04872694 eV

  energy without entropy =     -179.54425162  energy(sigma->0) =     -179.17260811


--------------------------------------------------------------------------------------------------------




--------------------------------------- Iteration      1(   6)  ---------------------------------------


    POTLOK:  cpu time   13.9567: real time   13.9603
    SETDIJ:  cpu time    0.1245: real time    0.1245
    EDDIAG:  cpu time   69.5925: real time   69.5941
  RMM-DIIS:  cpu time  192.4896: real time  192.4930
    ORTHCH:  cpu time   13.4739: real time   13.4740
       DOS:  cpu time    0.0014: real time    0.0014
    CHARGE:  cpu time   25.8157: real time   25.8195
    MIXING:  cpu time    0.4966: real time    0.4966
    --------------------------------------------
      LOOP:  cpu time  315.9510: real time  315.9635

 eigenvalue-minimisations  :   729
 total energy-change (2. order) : 0.1226923E+01  (-0.4846153E+01)
 number of electron     559.9999973 magnetization 
 augmentation part      240.7629271 magnetization 

 Broyden mixing:
  rms(total) = 0.19090E+01    rms(broyden)= 0.19088E+01
  rms(prec ) = 0.21868E+01
  weight for this iteration     100.00

 eigenvalues of (default mixing * dielectric matrix)
  average eigenvalue GAMMA=   0.3766
  0.3766

 Free energy of the ion-electron system (eV)
  ---------------------------------------------------
  alpha Z        PSCENC =        75.25431677
  Ewald energy   TEWEN  =    137921.14909054
  -Hartree energ DENC   =   -181701.45668660
  -exchange      EXHF   =         0.00000000
  -V(xc)+E(xc)   XCENC  =     -1697.33414132
  PAW double counting   =     45617.06711669   -42115.81435653
  entropy T*S    EENTRO =        -0.24773033
  eigenvalues    EBANDS =     -3362.94490718
  atomic energy  EATOM  =     45086.50549395
  Solvation  Ediel_sol  =         0.00000000
  ---------------------------------------------------
  free energy    TOTEN  =      -177.82180401 eV

  energy without entropy =     -177.57407368  energy(sigma->0) =     -177.75987143


--------------------------------------------------------------------------------------------------------




--------------------------------------- Iteration      1(   7)  ---------------------------------------


    POTLOK:  cpu time   13.4647: real time   13.4666
    SETDIJ:  cpu time    0.1259: real time    0.1259
    EDDIAG:  cpu time   69.2386: real time   69.2392
  RMM-DIIS:  cpu time  222.4074: real time  222.4120
    ORTHCH:  cpu time   13.7727: real time   13.7727
       DOS:  cpu time    0.0014: real time    0.0014
    CHARGE:  cpu time   26.1318: real time   26.1319
    MIXING:  cpu time    0.5003: real time    0.5003
    --------------------------------------------
      LOOP:  cpu time  345.6428: real time  345.6500

 eigenvalue-minimisations  :   847
 total energy-change (2. order) :-0.2084537E+01  (-0.1740774E+01)
 number of electron     559.9999920 magnetization 
 augmentation part      240.4422974 magnetization 

 Broyden mixing:
  rms(total) = 0.17764E+01    rms(broyden)= 0.17761E+01
  rms(prec ) = 0.20265E+01
  weight for this iteration     100.00

 eigenvalues of (default mixing * dielectric matrix)
  average eigenvalue GAMMA=   0.4155
  0.6571  0.1739

 Free energy of the ion-electron system (eV)
  ---------------------------------------------------
  alpha Z        PSCENC =        75.25431677
  Ewald energy   TEWEN  =    137921.14909054
  -Hartree energ DENC   =   -181795.32836238
  -exchange      EXHF   =         0.00000000
  -V(xc)+E(xc)   XCENC  =     -1697.47207849
  PAW double counting   =     45688.63003849   -42184.16021155
  entropy T*S    EENTRO =        -0.12915914
  eigenvalues    EBANDS =     -3274.35546960
  atomic energy  EATOM  =     45086.50549395
  Solvation  Ediel_sol  =         0.00000000
  ---------------------------------------------------
  free energy    TOTEN  =      -179.90634141 eV

  energy without entropy =     -179.77718226  energy(sigma->0) =     -179.87405162


--------------------------------------------------------------------------------------------------------




--------------------------------------- Iteration      1(   8)  ---------------------------------------


    POTLOK:  cpu time   13.6755: real time   13.6794
    SETDIJ:  cpu time    0.1236: real time    0.1236
    EDDIAG:  cpu time   69.9133: real time   69.9147
  RMM-DIIS:  cpu time  194.7752: real time  194.7799
    ORTHCH:  cpu time   13.8879: real time   13.8881
       DOS:  cpu time    0.0014: real time    0.0014
    CHARGE:  cpu time   26.0970: real time   26.0973
    MIXING:  cpu time    0.5152: real time    0.5152
    --------------------------------------------
      LOOP:  cpu time  318.9891: real time  318.9997

 eigenvalue-minimisations  :   743
 total energy-change (2. order) :-0.1868948E+01  (-0.6791290E+00)
 number of electron     559.9999942 magnetization 
 augmentation part      240.8858275 magnetization 

 Broyden mixing:
  rms(total) = 0.24785E+01    rms(broyden)= 0.24782E+01
  rms(prec ) = 0.29004E+01
  weight for this iteration     100.00

 eigenvalues of (default mixing * dielectric matrix)
  average eigenvalue GAMMA=   0.3666
  0.7871  0.1606  0.1521

 Free energy of the ion-electron system (eV)
  ---------------------------------------------------
  alpha Z        PSCENC =        75.25431677
  Ewald energy   TEWEN  =    137921.14909054
  -Hartree energ DENC   =   -181826.35678078
  -exchange      EXHF   =         0.00000000
  -V(xc)+E(xc)   XCENC  =     -1697.31885347
  PAW double counting   =     45778.19788777   -42269.42684889
  entropy T*S    EENTRO =        -0.12287119
  eigenvalues    EBANDS =     -3249.65672388
  atomic energy  EATOM  =     45086.50549395
  Solvation  Ediel_sol  =         0.00000000
  ---------------------------------------------------
  free energy    TOTEN  =      -181.77528918 eV

  energy without entropy =     -181.65241799  energy(sigma->0) =     -181.74457138


--------------------------------------------------------------------------------------------------------




--------------------------------------- Iteration      1(   9)  ---------------------------------------


    POTLOK:  cpu time   13.5213: real time   13.5232
    SETDIJ:  cpu time    0.1223: real time    0.1223
    EDDIAG:  cpu time   68.6938: real time   68.6948
  RMM-DIIS:  cpu time  197.4258: real time  197.4301
    ORTHCH:  cpu time   13.5690: real time   13.5692
       DOS:  cpu time    0.0014: real time    0.0014
    CHARGE:  cpu time   26.0358: real time   26.0360
    MIXING:  cpu time    0.5464: real time    0.5464
    --------------------------------------------
      LOOP:  cpu time  319.9157: real time  319.9234

 eigenvalue-minimisations  :   748
 total energy-change (2. order) : 0.1777942E+00  (-0.3452181E+00)
 number of electron     559.9999936 magnetization 
 augmentation part      241.1304089 magnetization 

 Broyden mixing:
  rms(total) = 0.33644E+01    rms(broyden)= 0.33642E+01
  rms(prec ) = 0.40035E+01
  weight for this iteration     100.00

 eigenvalues of (default mixing * dielectric matrix)
  average eigenvalue GAMMA=   0.3065
  0.8333  0.1637  0.1637  0.0653

 Free energy of the ion-electron system (eV)
  ---------------------------------------------------
  alpha Z        PSCENC =        75.25431677
  Ewald energy   TEWEN  =    137921.14909054
  -Hartree energ DENC   =   -181857.99683585
  -exchange      EXHF   =         0.00000000
  -V(xc)+E(xc)   XCENC  =     -1697.16188953
  PAW double counting   =     45830.56755394   -42319.44167519
  entropy T*S    EENTRO =        -0.00943179
  eigenvalues    EBANDS =     -3220.46411778
  atomic energy  EATOM  =     45086.50549395
  Solvation  Ediel_sol  =         0.00000000
  ---------------------------------------------------
  free energy    TOTEN  =      -181.59749494 eV

  energy without entropy =     -181.58806315  energy(sigma->0) =     -181.59513699


--------------------------------------------------------------------------------------------------------




--------------------------------------- Iteration      1(  10)  ---------------------------------------


    POTLOK:  cpu time   13.3812: real time   13.3830
    SETDIJ:  cpu time    0.1216: real time    0.1216
    EDDIAG:  cpu time   68.4295: real time   68.4306
  RMM-DIIS:  cpu time  197.5928: real time  197.5970
    ORTHCH:  cpu time   13.5854: real time   13.5856
       DOS:  cpu time    0.0015: real time    0.0015
    CHARGE:  cpu time   25.8235: real time   25.8237
    MIXING:  cpu time    0.5868: real time    0.5868
    --------------------------------------------
      LOOP:  cpu time  319.5222: real time  319.5297

 eigenvalue-minimisations  :   752
 total energy-change (2. order) : 0.3473523E+01  (-0.1825183E+00)
 number of electron     559.9999931 magnetization 
 augmentation part      241.3754992 magnetization 

 Broyden mixing:
  rms(total) = 0.19579E+01    rms(broyden)= 0.19576E+01
  rms(prec ) = 0.22645E+01
  weight for this iteration     100.00

 eigenvalues of (default mixing * dielectric matrix)
  average eigenvalue GAMMA=   0.2786
  0.8697  0.1851  0.1851  0.0984  0.0550

 Free energy of the ion-electron system (eV)
  ---------------------------------------------------
  alpha Z        PSCENC =        75.25431677
  Ewald energy   TEWEN  =    137921.14909054
  -Hartree energ DENC   =   -181877.80467756
  -exchange      EXHF   =         0.00000000
  -V(xc)+E(xc)   XCENC  =     -1697.10442338
  PAW double counting   =     45853.23868363   -42341.10801643
  entropy T*S    EENTRO =        -0.04966209
  eigenvalues    EBANDS =     -3198.20477734
  atomic energy  EATOM  =     45086.50549395
  Solvation  Ediel_sol  =         0.00000000
  ---------------------------------------------------
  free energy    TOTEN  =      -178.12397190 eV

  energy without entropy =     -178.07430982  energy(sigma->0) =     -178.11155638


--------------------------------------------------------------------------------------------------------




--------------------------------------- Iteration      1(  11)  ---------------------------------------


    POTLOK:  cpu time   13.4336: real time   13.4361
    SETDIJ:  cpu time    0.1196: real time    0.1196
    EDDIAG:  cpu time   68.4890: real time   68.4912
  RMM-DIIS:  cpu time  193.0766: real time  193.0808
    ORTHCH:  cpu time   13.4261: real time   13.4264
       DOS:  cpu time    0.0015: real time    0.0015
    CHARGE:  cpu time   25.7830: real time   25.7835
    MIXING:  cpu time    0.6113: real time    0.6113
    --------------------------------------------
      LOOP:  cpu time  314.9408: real time  314.9504

 eigenvalue-minimisations  :   735
 total energy-change (2. order) : 0.1507435E+01  (-0.1301421E+00)
 number of electron     559.9999939 magnetization 
 augmentation part      241.4131835 magnetization 

 Broyden mixing:
  rms(total) = 0.13402E+01    rms(broyden)= 0.13398E+01
  rms(prec ) = 0.15566E+01
  weight for this iteration     100.00

 eigenvalues of (default mixing * dielectric matrix)
  average eigenvalue GAMMA=   0.2705
  0.9091  0.2364  0.2364  0.0949  0.0808  0.0654

 Free energy of the ion-electron system (eV)
  ---------------------------------------------------
  alpha Z        PSCENC =        75.25431677
  Ewald energy   TEWEN  =    137921.14909054
  -Hartree energ DENC   =   -181898.50063500
  -exchange      EXHF   =         0.00000000
  -V(xc)+E(xc)   XCENC  =     -1696.97645241
  PAW double counting   =     45877.16648083   -42363.93952101
  entropy T*S    EENTRO =        -0.19359316
  eigenvalues    EBANDS =     -3177.08171715
  atomic energy  EATOM  =     45086.50549395
  Solvation  Ediel_sol  =         0.00000000
  ---------------------------------------------------
  free energy    TOTEN  =      -176.61653663 eV

  energy without entropy =     -176.42294347  energy(sigma->0) =     -176.56813834


--------------------------------------------------------------------------------------------------------




--------------------------------------- Iteration      1(  12)  ---------------------------------------


    POTLOK:  cpu time   13.2192: real time   13.2201
    SETDIJ:  cpu time    0.1214: real time    0.1214
    EDDIAG:  cpu time   67.2715: real time   67.2735
  RMM-DIIS:  cpu time  191.2087: real time  191.2145
    ORTHCH:  cpu time   13.1549: real time   13.1551
       DOS:  cpu time    0.0015: real time    0.0014
    CHARGE:  cpu time   24.8919: real time   24.8922
    MIXING:  cpu time    0.6467: real time    0.6467
    --------------------------------------------
      LOOP:  cpu time  310.5158: real time  310.5250

 eigenvalue-minimisations  :   723
 total energy-change (2. order) : 0.7010637E+00  (-0.1115508E+00)
 number of electron     559.9999945 magnetization 
 augmentation part      241.5261506 magnetization 

 Broyden mixing:
  rms(total) = 0.13723E+01    rms(broyden)= 0.13720E+01
  rms(prec ) = 0.16502E+01
  weight for this iteration     100.00

 eigenvalues of (default mixing * dielectric matrix)
  average eigenvalue GAMMA=   0.2758
  0.9560  0.3122  0.3122  0.1136  0.1136  0.0614  0.0614

 Free energy of the ion-electron system (eV)
  ---------------------------------------------------
  alpha Z        PSCENC =        75.25431677
  Ewald energy   TEWEN  =    137921.14909054
  -Hartree energ DENC   =   -181916.42435387
  -exchange      EXHF   =         0.00000000
  -V(xc)+E(xc)   XCENC  =     -1696.76341608
  PAW double counting   =     45906.54697211   -42391.78151058
  entropy T*S    EENTRO =        -0.09220897
  eigenvalues    EBANDS =     -3160.30985681
  atomic energy  EATOM  =     45086.50549395
  Solvation  Ediel_sol  =         0.00000000
  ---------------------------------------------------
  free energy    TOTEN  =      -175.91547293 eV

  energy without entropy =     -175.82326396  energy(sigma->0) =     -175.89242068


--------------------------------------------------------------------------------------------------------




--------------------------------------- Iteration      1(  13)  ---------------------------------------


    POTLOK:  cpu time   13.0229: real time   13.0247
    SETDIJ:  cpu time    0.1199: real time    0.1199
    EDDIAG:  cpu time   68.2253: real time   68.2267
  RMM-DIIS:  cpu time  188.8547: real time  188.8626
    ORTHCH:  cpu time   13.6115: real time   13.6116
       DOS:  cpu time    0.0014: real time    0.0014
    CHARGE:  cpu time   25.7180: real time   25.7184
    MIXING:  cpu time    0.7080: real time    0.7080
    --------------------------------------------
      LOOP:  cpu time  310.2618: real time  310.2734

 eigenvalue-minimisations  :   722
 total energy-change (2. order) :-0.6067433E+00  (-0.9656756E-01)
 number of electron     559.9999930 magnetization 
 augmentation part      241.4274792 magnetization 

 Broyden mixing:
  rms(total) = 0.18281E+01    rms(broyden)= 0.18278E+01
  rms(prec ) = 0.22178E+01
  weight for this iteration     100.00

 eigenvalues of (default mixing * dielectric matrix)
  average eigenvalue GAMMA=   0.2824
  1.0026  0.5306  0.2795  0.1300  0.1300  0.0741  0.0561  0.0561

 Free energy of the ion-electron system (eV)
  ---------------------------------------------------
  alpha Z        PSCENC =        75.25431677
  Ewald energy   TEWEN  =    137921.14909054
  -Hartree energ DENC   =   -181938.77661041
  -exchange      EXHF   =         0.00000000
  -V(xc)+E(xc)   XCENC  =     -1696.43445105
  PAW double counting   =     45941.79329875   -42425.14035068
  entropy T*S    EENTRO =        -0.11891618
  eigenvalues    EBANDS =     -3140.75408792
  atomic energy  EATOM  =     45086.50549395
  Solvation  Ediel_sol  =         0.00000000
  ---------------------------------------------------
  free energy    TOTEN  =      -176.52221623 eV

  energy without entropy =     -176.40330005  energy(sigma->0) =     -176.49248719


--------------------------------------------------------------------------------------------------------




--------------------------------------- Iteration      1(  14)  ---------------------------------------


    POTLOK:  cpu time   13.5737: real time   13.5777
    SETDIJ:  cpu time    0.1249: real time    0.1249
    EDDIAG:  cpu time   69.3974: real time   69.4001
  RMM-DIIS:  cpu time  186.7022: real time  186.7072
    ORTHCH:  cpu time   13.7095: real time   13.7097
       DOS:  cpu time    0.0015: real time    0.0015
    CHARGE:  cpu time   26.1154: real time   26.1159
    MIXING:  cpu time    0.7110: real time    0.7110
    --------------------------------------------
      LOOP:  cpu time  310.3356: real time  310.3479

 eigenvalue-minimisations  :   717
 total energy-change (2. order) : 0.1836454E+00  (-0.9880242E-01)
 number of electron     559.9999939 magnetization 
 augmentation part      241.2659926 magnetization 

 Broyden mixing:
  rms(total) = 0.17681E+01    rms(broyden)= 0.17678E+01
  rms(prec ) = 0.20302E+01
  weight for this iteration     100.00

 eigenvalues of (default mixing * dielectric matrix)
  average eigenvalue GAMMA=   0.3040
  1.1813  0.7659  0.2419  0.1366  0.1366  0.0942  0.0649  0.0649  0.0501

 Free energy of the ion-electron system (eV)
  ---------------------------------------------------
  alpha Z        PSCENC =        75.25431677
  Ewald energy   TEWEN  =    137921.14909054
  -Hartree energ DENC   =   -181970.10703576
  -exchange      EXHF   =         0.00000000
  -V(xc)+E(xc)   XCENC  =     -1696.02929866
  PAW double counting   =     45982.63620450   -42463.81654779
  entropy T*S    EENTRO =        -0.11103666
  eigenvalues    EBANDS =     -3111.81975770
  atomic energy  EATOM  =     45086.50549395
  Solvation  Ediel_sol  =         0.00000000
  ---------------------------------------------------
  free energy    TOTEN  =      -176.33857081 eV

  energy without entropy =     -176.22753415  energy(sigma->0) =     -176.31081164


--------------------------------------------------------------------------------------------------------




--------------------------------------- Iteration      1(  15)  ---------------------------------------


    POTLOK:  cpu time   13.0921: real time   13.0943
    SETDIJ:  cpu time    0.1189: real time    0.1189
    EDDIAG:  cpu time   66.7561: real time   66.7589
  RMM-DIIS:  cpu time  184.3605: real time  184.3630
    ORTHCH:  cpu time   13.4590: real time   13.4590
       DOS:  cpu time    0.0015: real time    0.0015
    CHARGE:  cpu time   24.9477: real time   24.9478
    MIXING:  cpu time    0.7533: real time    0.7533
    --------------------------------------------
      LOOP:  cpu time  303.4892: real time  303.4968

 eigenvalue-minimisations  :   708
 total energy-change (2. order) : 0.6337386E+00  (-0.1098836E+00)
 number of electron     559.9999947 magnetization 
 augmentation part      241.1202770 magnetization 

 Broyden mixing:
  rms(total) = 0.13441E+01    rms(broyden)= 0.13438E+01
  rms(prec ) = 0.15331E+01
  weight for this iteration     100.00

 eigenvalues of (default mixing * dielectric matrix)
  average eigenvalue GAMMA=   0.3115
  1.3912  0.8238  0.1961  0.1961  0.1159  0.1159  0.0979  0.0639  0.0639  0.0503

 Free energy of the ion-electron system (eV)
  ---------------------------------------------------
  alpha Z        PSCENC =        75.25431677
  Ewald energy   TEWEN  =    137921.14909054
  -Hartree energ DENC   =   -182011.03102387
  -exchange      EXHF   =         0.00000000
  -V(xc)+E(xc)   XCENC  =     -1695.47276868
  PAW double counting   =     46038.51183914   -42516.72534555
  entropy T*S    EENTRO =        -0.07827920
  eigenvalues    EBANDS =     -3073.81815528
  atomic energy  EATOM  =     45086.50549395
  Solvation  Ediel_sol  =         0.00000000
  ---------------------------------------------------
  free energy    TOTEN  =      -175.70483219 eV

  energy without entropy =     -175.62655299  energy(sigma->0) =     -175.68526239


--------------------------------------------------------------------------------------------------------




--------------------------------------- Iteration      1(  16)  ---------------------------------------


    POTLOK:  cpu time   12.9227: real time   12.9237
    SETDIJ:  cpu time    0.1193: real time    0.1193
    EDDIAG:  cpu time   67.0415: real time   67.0429
  RMM-DIIS:  cpu time  184.8486: real time  184.8549
    ORTHCH:  cpu time   12.9838: real time   12.9840
       DOS:  cpu time    0.0015: real time    0.0015
    CHARGE:  cpu time   24.3434: real time   24.3437
    MIXING:  cpu time    0.7992: real time    0.7992
    --------------------------------------------
      LOOP:  cpu time  303.0600: real time  303.0692

 eigenvalue-minimisations  :   720
 total energy-change (2. order) :-0.1044181E+00  (-0.6684630E-01)
 number of electron     559.9999965 magnetization 
 augmentation part      241.0799104 magnetization 

 Broyden mixing:
  rms(total) = 0.21738E+01    rms(broyden)= 0.21736E+01
  rms(prec ) = 0.25847E+01
  weight for this iteration     100.00

 eigenvalues of (default mixing * dielectric matrix)
  average eigenvalue GAMMA=   0.3064
  1.5382  0.8262  0.2239  0.2239  0.1177  0.1177  0.0804  0.0804  0.0583  0.0517
  0.0517

 Free energy of the ion-electron system (eV)
  ---------------------------------------------------
  alpha Z        PSCENC =        75.25431677
  Ewald energy   TEWEN  =    137921.14909054
  -Hartree energ DENC   =   -182038.52061174
  -exchange      EXHF   =         0.00000000
  -V(xc)+E(xc)   XCENC  =     -1695.11115362
  PAW double counting   =     46073.13422745   -42549.38314920
  entropy T*S    EENTRO =         0.09725311
  eigenvalues    EBANDS =     -3048.93471758
  atomic energy  EATOM  =     45086.50549395
  Solvation  Ediel_sol  =         0.00000000
  ---------------------------------------------------
  free energy    TOTEN  =      -175.80925031 eV

  energy without entropy =     -175.90650343  energy(sigma->0) =     -175.83356359


--------------------------------------------------------------------------------------------------------




--------------------------------------- Iteration      1(  17)  ---------------------------------------


    POTLOK:  cpu time   12.8593: real time   12.8639
    SETDIJ:  cpu time    0.1220: real time    0.1220
    EDDIAG:  cpu time   66.6082: real time   66.6102
  RMM-DIIS:  cpu time  172.8853: real time  172.8933
    ORTHCH:  cpu time   12.7704: real time   12.7706
       DOS:  cpu time    0.0014: real time    0.0014
    CHARGE:  cpu time   24.2167: real time   24.2171
    MIXING:  cpu time    0.8195: real time    0.8195
    --------------------------------------------
      LOOP:  cpu time  290.2828: real time  290.2981

 eigenvalue-minimisations  :   707
 total energy-change (2. order) : 0.6940854E+00  (-0.4394625E-01)
 number of electron     559.9999941 magnetization 
 augmentation part      241.1246459 magnetization 

 Broyden mixing:
  rms(total) = 0.13333E+01    rms(broyden)= 0.13331E+01
  rms(prec ) = 0.15280E+01
  weight for this iteration     100.00

 eigenvalues of (default mixing * dielectric matrix)
  average eigenvalue GAMMA=   0.3123
  1.6691  0.8522  0.2827  0.2827  0.1285  0.1285  0.0951  0.0951  0.0615  0.0615
  0.0507  0.0395

 Free energy of the ion-electron system (eV)
  ---------------------------------------------------
  alpha Z        PSCENC =        75.25431677
  Ewald energy   TEWEN  =    137921.14909054
  -Hartree energ DENC   =   -182048.52864044
  -exchange      EXHF   =         0.00000000
  -V(xc)+E(xc)   XCENC  =     -1694.97191862
  PAW double counting   =     46088.44586253   -42563.78981018
  entropy T*S    EENTRO =         0.04461781
  eigenvalues    EBANDS =     -3039.22417725
  atomic energy  EATOM  =     45086.50549395
  Solvation  Ediel_sol  =         0.00000000
  ---------------------------------------------------
  free energy    TOTEN  =      -175.11516488 eV

  energy without entropy =     -175.15978269  energy(sigma->0) =     -175.12631933


--------------------------------------------------------------------------------------------------------




--------------------------------------- Iteration      1(  18)  ---------------------------------------


    POTLOK:  cpu time   12.2244: real time   12.2273
    SETDIJ:  cpu time    0.1171: real time    0.1171
    EDDIAG:  cpu time   64.8660: real time   64.8686
  RMM-DIIS:  cpu time  174.5261: real time  174.5327
    ORTHCH:  cpu time   12.7456: real time   12.7458
       DOS:  cpu time    0.0015: real time    0.0015
    CHARGE:  cpu time   23.9468: real time   23.9472
    MIXING:  cpu time    0.8644: real time    0.8644
    --------------------------------------------
      LOOP:  cpu time  289.2918: real time  289.3044

 eigenvalue-minimisations  :   715
 total energy-change (2. order) : 0.1314067E+00  (-0.3999874E-01)
 number of electron     559.9999957 magnetization 
 augmentation part      241.1605446 magnetization 

 Broyden mixing:
  rms(total) = 0.11039E+01    rms(broyden)= 0.11038E+01
  rms(prec ) = 0.13008E+01
  weight for this iteration     100.00

 eigenvalues of (default mixing * dielectric matrix)
  average eigenvalue GAMMA=   0.3292
  1.8354  0.9703  0.3593  0.3593  0.1301  0.1301  0.1055  0.0902  0.0902  0.0566
  0.0566  0.0491  0.0470

 Free energy of the ion-electron system (eV)
  ---------------------------------------------------
  alpha Z        PSCENC =        75.25431677
  Ewald energy   TEWEN  =    137921.14909054
  -Hartree energ DENC   =   -182060.93759177
  -exchange      EXHF   =         0.00000000
  -V(xc)+E(xc)   XCENC  =     -1694.84306607
  PAW double counting   =     46099.32752622   -42573.86734579
  entropy T*S    EENTRO =         0.01079789
  eigenvalues    EBANDS =     -3027.58297995
  atomic energy  EATOM  =     45086.50549395
  Solvation  Ediel_sol  =         0.00000000
  ---------------------------------------------------
  free energy    TOTEN  =      -174.98375821 eV

  energy without entropy =     -174.99455610  energy(sigma->0) =     -174.98645768


--------------------------------------------------------------------------------------------------------




--------------------------------------- Iteration      1(  19)  ---------------------------------------


    POTLOK:  cpu time   12.1460: real time   12.1479
    SETDIJ:  cpu time    0.1170: real time    0.1170
    EDDIAG:  cpu time   64.5566: real time   64.5594
  RMM-DIIS:  cpu time  173.2369: real time  173.2398
    ORTHCH:  cpu time   12.7049: real time   12.7049
       DOS:  cpu time    0.0015: real time    0.0015
    CHARGE:  cpu time   23.7201: real time   23.7202
    MIXING:  cpu time    0.9048: real time    0.9048
    --------------------------------------------
      LOOP:  cpu time  287.3878: real time  287.3955

 eigenvalue-minimisations  :   711
 total energy-change (2. order) : 0.8593318E-01  (-0.4905973E-01)
 number of electron     559.9999948 magnetization 
 augmentation part      241.0988472 magnetization 

 Broyden mixing:
  rms(total) = 0.86599E+00    rms(broyden)= 0.86574E+00
  rms(prec ) = 0.98338E+00
  weight for this iteration     100.00

 eigenvalues of (default mixing * dielectric matrix)
  average eigenvalue GAMMA=   0.3392
  2.0202  1.0845  0.3731  0.3731  0.1314  0.1314  0.1298  0.1298  0.0847  0.0847
  0.0557  0.0557  0.0492  0.0463

 Free energy of the ion-electron system (eV)
  ---------------------------------------------------
  alpha Z        PSCENC =        75.25431677
  Ewald energy   TEWEN  =    137921.14909054
  -Hartree energ DENC   =   -182089.83323148
  -exchange      EXHF   =         0.00000000
  -V(xc)+E(xc)   XCENC  =     -1694.61272338
  PAW double counting   =     46114.78995471   -42587.89587618
  entropy T*S    EENTRO =        -0.09937855
  eigenvalues    EBANDS =     -3000.15547141
  atomic energy  EATOM  =     45086.50549395
  Solvation  Ediel_sol  =         0.00000000
  ---------------------------------------------------
  free energy    TOTEN  =      -174.89782503 eV

  energy without entropy =     -174.79844648  energy(sigma->0) =     -174.87298039


--------------------------------------------------------------------------------------------------------




--------------------------------------- Iteration      1(  20)  ---------------------------------------


    POTLOK:  cpu time   12.1844: real time   12.1870
    SETDIJ:  cpu time    0.1159: real time    0.1159
    EDDIAG:  cpu time   64.6717: real time   64.6722
  RMM-DIIS:  cpu time  168.6769: real time  168.6790
    ORTHCH:  cpu time   12.5241: real time   12.5241
       DOS:  cpu time    0.0015: real time    0.0015
    CHARGE:  cpu time   23.5477: real time   23.5477
    MIXING:  cpu time    0.9361: real time    0.9361
    --------------------------------------------
      LOOP:  cpu time  282.6581: real time  282.6636

 eigenvalue-minimisations  :   706
 total energy-change (2. order) : 0.1718113E+00  (-0.3357467E-01)
 number of electron     559.9999948 magnetization 
 augmentation part      241.0577656 magnetization 

 Broyden mixing:
  rms(total) = 0.64870E+00    rms(broyden)= 0.64848E+00
  rms(prec ) = 0.73798E+00
  weight for this iteration     100.00

 eigenvalues of (default mixing * dielectric matrix)
  average eigenvalue GAMMA=   0.3428
  2.1461  1.1414  0.4324  0.2827  0.2827  0.1304  0.1304  0.1111  0.1111  0.0840
  0.0840  0.0553  0.0553  0.0489  0.0469

 Free energy of the ion-electron system (eV)
  ---------------------------------------------------
  alpha Z        PSCENC =        75.25431677
  Ewald energy   TEWEN  =    137921.14909054
  -Hartree energ DENC   =   -182116.20304222
  -exchange      EXHF   =         0.00000000
  -V(xc)+E(xc)   XCENC  =     -1694.34237332
  PAW double counting   =     46126.83203213   -42598.59487035
  entropy T*S    EENTRO =        -0.14970798
  eigenvalues    EBANDS =     -2975.17695324
  atomic energy  EATOM  =     45086.50549395
  Solvation  Ediel_sol  =         0.00000000
  ---------------------------------------------------
  free energy    TOTEN  =      -174.72601371 eV

  energy without entropy =     -174.57630573  energy(sigma->0) =     -174.68858672


--------------------------------------------------------------------------------------------------------




--------------------------------------- Iteration      1(  21)  ---------------------------------------


    POTLOK:  cpu time   11.6456: real time   11.6484
    SETDIJ:  cpu time    0.1149: real time    0.1149
    EDDIAG:  cpu time   63.5075: real time   63.5082
  RMM-DIIS:  cpu time  166.8967: real time  166.8985
    ORTHCH:  cpu time   12.5115: real time   12.5116
       DOS:  cpu time    0.0015: real time    0.0015
    CHARGE:  cpu time   23.4094: real time   23.4095
    MIXING:  cpu time    0.9875: real time    0.9875
    --------------------------------------------
      LOOP:  cpu time  279.0745: real time  279.0801

 eigenvalue-minimisations  :   702
 total energy-change (2. order) : 0.1362540E+00  (-0.1989373E-01)
 number of electron     559.9999946 magnetization 
 augmentation part      241.0805959 magnetization 

 Broyden mixing:
  rms(total) = 0.57647E+00    rms(broyden)= 0.57631E+00
  rms(prec ) = 0.66602E+00
  weight for this iteration     100.00

 eigenvalues of (default mixing * dielectric matrix)
  average eigenvalue GAMMA=   0.3507
  2.2147  1.2097  0.5799  0.3180  0.3180  0.1303  0.1303  0.1276  0.1276  0.0850
  0.0850  0.0780  0.0555  0.0555  0.0474  0.0482

 Free energy of the ion-electron system (eV)
  ---------------------------------------------------
  alpha Z        PSCENC =        75.25431677
  Ewald energy   TEWEN  =    137921.14909054
  -Hartree energ DENC   =   -182130.35052173
  -exchange      EXHF   =         0.00000000
  -V(xc)+E(xc)   XCENC  =     -1694.16385496
  PAW double counting   =     46130.09701677   -42601.12952644
  entropy T*S    EENTRO =        -0.14852495
  eigenvalues    EBANDS =     -2961.80324964
  atomic energy  EATOM  =     45086.50549395
  Solvation  Ediel_sol  =         0.00000000
  ---------------------------------------------------
  free energy    TOTEN  =      -174.58975969 eV

  energy without entropy =     -174.44123474  energy(sigma->0) =     -174.55262845


--------------------------------------------------------------------------------------------------------




--------------------------------------- Iteration      1(  22)  ---------------------------------------


    POTLOK:  cpu time   11.4889: real time   11.4898
    SETDIJ:  cpu time    0.1137: real time    0.1137
    EDDIAG:  cpu time   63.1818: real time   63.1823
  RMM-DIIS:  cpu time  165.4400: real time  165.4420
    ORTHCH:  cpu time   11.9555: real time   11.9556
       DOS:  cpu time    0.0014: real time    0.0014
    CHARGE:  cpu time   22.6518: real time   22.6520
    MIXING:  cpu time    1.0068: real time    1.0068
    --------------------------------------------
      LOOP:  cpu time  275.8400: real time  275.8437

 eigenvalue-minimisations  :   697
 total energy-change (2. order) : 0.1224581E+00  (-0.1322047E-01)
 number of electron     559.9999949 magnetization 
 augmentation part      241.0699650 magnetization 

 Broyden mixing:
  rms(total) = 0.46234E+00    rms(broyden)= 0.46219E+00
  rms(prec ) = 0.53640E+00
  weight for this iteration     100.00

 eigenvalues of (default mixing * dielectric matrix)
  average eigenvalue GAMMA=   0.3542
  2.2665  1.2614  0.7048  0.3331  0.3331  0.1752  0.1308  0.1308  0.1200  0.1200
  0.0839  0.0839  0.0717  0.0554  0.0554  0.0478  0.0478

 Free energy of the ion-electron system (eV)
  ---------------------------------------------------
  alpha Z        PSCENC =        75.25431677
  Ewald energy   TEWEN  =    137921.14909054
  -Hartree energ DENC   =   -182142.44075693
  -exchange      EXHF   =         0.00000000
  -V(xc)+E(xc)   XCENC  =     -1693.99458836
  PAW double counting   =     46128.92612807   -42599.45361596
  entropy T*S    EENTRO =        -0.14998047
  eigenvalues    EBANDS =     -2950.26338918
  atomic energy  EATOM  =     45086.50549395
  Solvation  Ediel_sol  =         0.00000000
  ---------------------------------------------------
  free energy    TOTEN  =      -174.46730156 eV

  energy without entropy =     -174.31732110  energy(sigma->0) =     -174.42980645


--------------------------------------------------------------------------------------------------------




--------------------------------------- Iteration      1(  23)  ---------------------------------------


    POTLOK:  cpu time   11.0571: real time   11.0590
    SETDIJ:  cpu time    0.1115: real time    0.1115
    EDDIAG:  cpu time   61.3574: real time   61.3597
  RMM-DIIS:  cpu time  160.6134: real time  160.6216
    ORTHCH:  cpu time   12.1223: real time   12.1227
       DOS:  cpu time    0.0014: real time    0.0014
    CHARGE:  cpu time   22.5863: real time   22.5870
    MIXING:  cpu time    1.0559: real time    1.0559
    --------------------------------------------
      LOOP:  cpu time  268.9052: real time  268.9188

 eigenvalue-minimisations  :   698
 total energy-change (2. order) : 0.4887012E-01  (-0.9629036E-02)
 number of electron     559.9999949 magnetization 
 augmentation part      241.0797776 magnetization 

 Broyden mixing:
  rms(total) = 0.44596E+00    rms(broyden)= 0.44583E+00
  rms(prec ) = 0.54382E+00
  weight for this iteration     100.00

 eigenvalues of (default mixing * dielectric matrix)
  average eigenvalue GAMMA=   0.3568
  2.2841  1.3761  0.7956  0.3323  0.3323  0.2573  0.1303  0.1303  0.1194  0.1145
[...]
 -0.007  -0.012   0.004   0.004   0.006  -0.006  -0.012   0.003
 -0.011  -0.020   0.006   0.007   0.009  -0.011  -0.020   0.006
 -0.015  -0.005   0.012   0.000   0.022  -0.014  -0.005   0.012
  0.000  -0.022  -0.006  -0.015  -0.000   0.000  -0.022  -0.006
 -0.022   0.000   0.009  -0.005  -0.016  -0.021   0.000   0.009
 -0.018  -0.006   0.015   0.000   0.027  -0.017  -0.006   0.015
  0.000  -0.027  -0.007  -0.018   0.000   0.000  -0.026  -0.007
 -0.027   0.000   0.011  -0.006  -0.019  -0.026   0.000   0.010
 total augmentation occupancy for first ion, spin component:           1
  1.541  -0.032   0.007   0.019   0.023   0.074  -0.007  -0.003   0.035  -0.010   0.091  -0.031   0.013   0.001   0.002  -0.019
 -0.032   1.405   0.030   0.073   0.002  -0.006   0.070   0.010  -0.015  -0.009   0.216  -0.066   0.020   0.000   0.002  -0.007
  0.007   0.030   1.546  -0.001   0.002  -0.003   0.012   0.072  -0.012   0.017  -0.047   0.016  -0.004  -0.005  -0.005   0.016
  0.019   0.073  -0.001   1.340   0.043   0.033  -0.014  -0.011   0.091  -0.022  -0.081   0.021  -0.002  -0.008  -0.003   0.001
  0.023   0.002   0.002   0.043   1.444  -0.011  -0.009   0.016  -0.022   0.065  -0.096   0.032  -0.003  -0.009  -0.009   0.026
  0.074  -0.006  -0.003   0.033  -0.011   0.215   0.018  -0.001  -0.045   0.004  -0.048   0.002   0.016  -0.010   0.034  -0.004
 -0.007   0.070   0.012  -0.014  -0.009   0.018   0.261  -0.023  -0.002   0.006  -0.109   0.007  -0.002   0.052  -0.010  -0.001
 -0.003   0.010   0.072  -0.011   0.016  -0.001  -0.023   0.213   0.013  -0.019   0.028  -0.001  -0.012   0.009  -0.018   0.003
  0.035  -0.015  -0.012   0.091  -0.022  -0.045  -0.002   0.013   0.259   0.007   0.043  -0.004  -0.009   0.036   0.004   0.000
 -0.010  -0.009   0.017  -0.022   0.065   0.004   0.006  -0.019   0.007   0.257   0.046  -0.002  -0.038   0.002   0.049   0.007
  0.091   0.216  -0.047  -0.081  -0.096  -0.048  -0.109   0.028   0.043   0.046   0.951  -0.141   0.083   0.014   0.064  -0.013
 -0.031  -0.066   0.016   0.021   0.032   0.002   0.007  -0.001  -0.004  -0.002  -0.141   0.023  -0.014  -0.003  -0.010   0.003
  0.013   0.020  -0.004  -0.002  -0.003   0.016  -0.002  -0.012  -0.009  -0.038   0.083  -0.014   0.029  -0.008  -0.004  -0.003
  0.001   0.000  -0.005  -0.008  -0.009  -0.010   0.052   0.009   0.036   0.002   0.014  -0.003  -0.008   0.036   0.005   0.000
  0.002   0.002  -0.005  -0.003  -0.009   0.034  -0.010  -0.018   0.004   0.049   0.064  -0.010  -0.004   0.005   0.035  -0.000
 -0.019  -0.007   0.016   0.001   0.026  -0.004  -0.001   0.003   0.000   0.007  -0.013   0.003  -0.003   0.000  -0.000   0.001
  0.001  -0.027  -0.007  -0.018   0.001   0.001  -0.008  -0.002  -0.006  -0.000  -0.003   0.001   0.000  -0.003  -0.000   0.000
 -0.028   0.001   0.012  -0.006  -0.020  -0.006   0.001   0.003  -0.001  -0.007  -0.008   0.001  -0.000  -0.000  -0.003   0.000


------------------------ aborting loop because EDIFF is reached ----------------------------------------


    CHARGE:  cpu time   22.1825: real time   22.1827
    FORLOC:  cpu time    6.1855: real time    6.1857
    FORNL :  cpu time   58.0691: real time   58.0695
    STRESS:  cpu time  176.6314: real time  176.6334
    FORCOR:  cpu time   18.8314: real time   18.8317
    FORHAR:  cpu time    8.4683: real time    8.4685
    MIXING:  cpu time    3.0751: real time    3.0752
    OFIELD:  cpu time    0.0000: real time    0.0000

  FORCE on cell =-STRESS in cart. coord.  units (eV):
  Direction    XX          YY          ZZ          XY          YZ          ZX
  --------------------------------------------------------------------------------------
  Alpha Z    75.25432    75.25432    75.25432
  Ewald   43847.57724 48369.01603 45704.45014  -350.11324 -2001.78640   264.41567
  Hartree 58766.59051 63015.50855 60500.43146  -329.85635 -1818.03469   254.77112
  E(xc)   -2904.92465 -2903.33175 -2904.02622     0.01469    -1.30365    -0.17382
  Local  ************************************   678.43451  3801.84552  -519.36692
  n-local  -882.51842  -887.35545  -884.56165     0.76189     3.36764    -0.07223
  augment  4105.18578  4102.77965  4103.48810    -0.33802     2.32397     0.61848
  Kinetic  7811.54806  7794.22408  7802.26852     0.15923    13.53325     1.03561
  Fock        0.00000     0.00000     0.00000     0.00000     0.00000     0.00000
  -------------------------------------------------------------------------------------
  Total    -114.33501  -112.71822  -114.67444    -0.93730    -0.05436     1.22793
  in kB      -6.78463    -6.68869    -6.80477    -0.05562    -0.00323     0.07286
  external pressure =       -6.76 kB  Pullay stress =        0.00 kB


 VOLUME and BASIS-vectors are now :
 -----------------------------------------------------------------------------
  energy-cutoff  :      400.00
  volume of cell :    27000.00
      direct lattice vectors                 reciprocal lattice vectors
    30.000000000  0.000000000  0.000000000     0.033333333  0.000000000  0.000000000
     0.000000000 30.000000000  0.000000000     0.000000000  0.033333333  0.000000000
     0.000000000  0.000000000 30.000000000     0.000000000  0.000000000  0.033333333

  length of vectors
    30.000000000 30.000000000 30.000000000     0.033333333  0.033333333  0.033333333


 FORCES acting on ions
    electron-ion (+dipol)            ewald-force                    non-local-force                 convergence-correction
 -----------------------------------------------------------------------------------------------
   0.401E+03 0.964E+03 0.436E+03   -.399E+03 -.961E+03 -.436E+03   -.152E+01 -.181E+01 -.251E+00   -.174E-02 0.566E-02 -.463E-03
   -.973E+03 -.399E+03 0.420E+03   0.970E+03 0.397E+03 -.420E+03   0.181E+01 0.152E+01 -.213E+00   -.347E-02 0.421E-02 -.137E-02
   -.396E+03 0.963E+03 0.440E+03   0.394E+03 -.961E+03 -.439E+03   0.151E+01 -.182E+01 -.262E+00   -.367E-02 0.232E-03 0.266E-03
   0.973E+03 -.398E+03 0.420E+03   -.971E+03 0.396E+03 -.419E+03   -.180E+01 0.152E+01 -.221E+00   0.155E-02 -.592E-02 0.441E-02
   0.113E+01 0.581E+03 0.974E+03   -.112E+01 -.580E+03 -.971E+03   -.123E-02 -.319E+00 -.233E+01   -.584E-02 0.218E-02 0.278E-02
   0.254E+02 0.481E+03 -.974E+03   -.256E+02 -.480E+03 0.971E+03   0.143E+00 -.508E+00 0.197E+01   -.936E-02 0.167E-02 -.171E-02
   0.121E+02 0.113E+04 0.643E+02   -.121E+02 -.112E+04 -.645E+02   0.298E-01 -.306E+01 0.122E+00   -.179E-02 0.209E-02 -.906E-03
   0.114E+04 -.575E+01 0.386E+01   -.113E+04 0.576E+01 -.389E+01   -.310E+01 -.486E-02 0.150E-01   0.602E-02 -.168E-02 0.617E-03
   -.114E+04 -.799E+01 0.532E+01   0.113E+04 0.800E+01 -.534E+01   0.310E+01 -.897E-02 0.155E-01   -.380E-03 0.189E-02 -.162E-02
   0.441E+00 -.113E+04 0.223E+01   -.439E+00 0.113E+04 -.223E+01   0.786E-03 0.310E+01 0.474E-02   -.273E-02 -.384E-02 -.116E-02
   -.580E+03 0.573E+03 0.821E+03   0.578E+03 -.571E+03 -.818E+03   0.155E+01 -.157E+01 -.219E+01   -.633E-02 -.156E-02 0.137E-02
   -.617E+03 0.520E+03 -.816E+03   0.615E+03 -.518E+03 0.812E+03   0.145E+01 -.164E+01 0.213E+01   -.457E-02 -.683E-03 -.123E-02
   0.579E+03 -.580E+03 0.814E+03   -.577E+03 0.578E+03 -.811E+03   -.156E+01 0.155E+01 -.219E+01   -.939E-03 -.253E-02 0.338E-02
   0.581E+03 -.585E+03 -.812E+03   -.579E+03 0.583E+03 0.808E+03   -.156E+01 0.154E+01 0.220E+01   -.395E-02 -.639E-02 -.382E-02
   0.582E+03 0.574E+03 0.820E+03   -.579E+03 -.571E+03 -.816E+03   -.154E+01 -.157E+01 -.219E+01   0.273E-03 0.367E-02 0.424E-02
   0.611E+03 0.549E+03 -.814E+03   -.608E+03 -.546E+03 0.810E+03   -.152E+01 -.160E+01 0.220E+01   -.110E-02 0.511E-02 -.324E-02
   -.579E+03 -.581E+03 0.815E+03   0.576E+03 0.578E+03 -.811E+03   0.155E+01 0.156E+01 -.219E+01   -.694E-03 -.721E-03 0.261E-02
   -.580E+03 -.586E+03 -.812E+03   0.578E+03 0.584E+03 0.808E+03   0.157E+01 0.153E+01 0.220E+01   0.217E-03 0.104E-02 -.123E-03
   0.464E+03 0.919E+03 -.360E+03   -.462E+03 -.916E+03 0.359E+03   -.109E+01 -.174E+01 0.286E+00   -.485E-02 0.502E-02 0.986E-03
   -.976E+03 -.404E+03 -.413E+03   0.973E+03 0.402E+03 0.412E+03   0.181E+01 0.149E+01 0.229E+00   0.623E-03 0.174E-03 -.286E-02
   -.322E+03 0.310E+03 0.465E+03   0.323E+03 -.311E+03 -.466E+03   -.365E+00 0.369E+00 0.538E+00   -.102E-01 0.273E-02 0.228E-02
   0.976E+03 0.388E+03 0.422E+03   -.973E+03 -.386E+03 -.422E+03   -.181E+01 -.152E+01 -.193E+00   0.322E-02 0.182E-02 0.512E-02
   -.394E+03 -.973E+03 0.419E+03   0.392E+03 0.970E+03 -.418E+03   0.151E+01 0.182E+01 -.224E+00   -.237E-02 -.368E-02 0.110E-02
   -.448E+03 0.853E+03 -.286E+03   0.445E+03 -.852E+03 0.288E+03   0.134E+01 -.243E+00 -.799E+00   -.499E-02 0.471E-04 -.153E-02
   0.976E+03 -.402E+03 -.414E+03   -.973E+03 0.399E+03 0.413E+03   -.182E+01 0.149E+01 0.229E+00   0.321E-02 -.674E-02 -.130E-02
   -.976E+03 0.386E+03 0.425E+03   0.973E+03 -.384E+03 -.424E+03   0.180E+01 -.154E+01 -.176E+00   -.237E-02 0.212E-02 0.121E-02
   0.395E+03 -.973E+03 0.418E+03   -.392E+03 0.970E+03 -.418E+03   -.151E+01 0.183E+01 -.219E+00   -.128E-02 -.302E-02 0.193E-02
   0.325E+03 0.311E+03 0.464E+03   -.325E+03 -.312E+03 -.465E+03   0.384E+00 0.353E+00 0.557E+00   -.426E-02 0.319E-02 0.245E-02
   0.616E+01 0.612E+03 0.321E+02   -.607E+01 -.613E+03 -.321E+02   -.748E-01 0.739E+00 -.327E-01   -.568E-02 0.487E-02 -.137E-02
   -.587E+03 -.479E+01 0.969E+03   0.587E+03 0.477E+01 -.965E+03   0.285E+00 0.115E-01 -.235E+01   -.452E-02 0.544E-02 0.185E-02
   -.594E+03 -.217E+02 -.964E+03   0.593E+03 0.216E+02 0.961E+03   0.319E+00 0.356E-01 0.235E+01   -.278E-02 -.157E-02 0.422E-03
   0.588E+03 -.419E+01 0.968E+03   -.588E+03 0.416E+01 -.965E+03   -.295E+00 0.244E-01 -.236E+01   0.414E-03 -.281E-02 0.593E-02
   0.596E+03 -.159E+02 -.964E+03   -.595E+03 0.159E+02 0.960E+03   -.323E+00 0.202E-01 0.234E+01   -.181E-02 -.225E-02 -.490E-02
   0.775E+03 0.747E+03 0.164E+02   -.773E+03 -.745E+03 -.163E+02   -.118E+01 -.112E+01 -.454E-01   -.227E-02 0.710E-02 0.249E-03
   -.761E+03 -.766E+03 0.351E+01   0.760E+03 0.764E+03 -.350E+01   0.114E+01 0.114E+01 -.385E-02   -.379E-02 -.841E-03 -.549E-02
   -.774E+03 0.740E+03 0.248E+02   0.772E+03 -.738E+03 -.246E+02   0.130E+01 -.107E+01 -.163E+00   -.456E-02 -.134E-02 -.107E-02
   0.762E+03 -.765E+03 0.306E+01   -.760E+03 0.763E+03 -.306E+01   -.114E+01 0.115E+01 -.550E-02   0.115E-02 -.679E-02 0.720E-03
   0.662E+00 -.499E+01 0.107E+04   -.657E+00 0.498E+01 -.107E+04   0.668E-04 0.610E-02 -.161E+01   -.456E-02 -.176E-02 0.482E-02
   0.323E+01 -.262E+02 -.107E+04   -.322E+01 0.261E+02 0.107E+04   -.197E-02 0.717E-01 0.162E+01   -.105E-01 -.438E-02 -.306E-02
   0.984E+03 0.381E+03 -.411E+03   -.981E+03 -.379E+03 0.410E+03   -.183E+01 -.148E+01 0.216E+00   0.438E-02 0.366E-02 -.196E-02
   -.394E+03 -.975E+03 -.414E+03   0.392E+03 0.972E+03 0.414E+03   0.150E+01 0.183E+01 0.194E+00   -.426E-02 0.178E-02 -.572E-02
   -.327E+03 0.282E+03 -.438E+03   0.328E+03 -.282E+03 0.438E+03   -.384E+00 0.409E+00 -.469E+00   -.933E-02 0.770E-03 -.421E-02
   0.323E+03 -.327E+03 0.458E+03   -.323E+03 0.327E+03 -.458E+03   0.351E+00 -.380E+00 0.519E+00   -.703E-03 -.527E-02 0.465E-02
   0.335E+03 0.290E+03 -.441E+03   -.336E+03 -.291E+03 0.441E+03   0.356E+00 0.382E+00 -.530E+00   -.757E-02 0.344E-02 -.971E-03
   -.986E+03 0.374E+03 -.408E+03   0.983E+03 -.372E+03 0.408E+03   0.186E+01 -.148E+01 0.220E+00   -.891E-03 -.104E-02 -.225E-02
   0.395E+03 -.975E+03 -.414E+03   -.393E+03 0.972E+03 0.414E+03   -.150E+01 0.182E+01 0.194E+00   -.408E-02 -.306E-02 -.316E-02
   -.321E+03 -.327E+03 0.458E+03   0.322E+03 0.328E+03 -.459E+03   -.355E+00 -.375E+00 0.517E+00   -.508E-02 -.102E-02 0.223E-02
   0.644E+03 -.105E+02 0.695E+01   -.645E+03 0.105E+02 -.697E+01   0.746E+00 -.206E-01 0.124E-01   -.132E-02 -.302E-02 0.891E-03
   -.643E+03 -.133E+02 0.878E+01   0.644E+03 0.133E+02 -.877E+01   -.740E+00 -.111E-01 -.395E-02   -.765E-02 0.122E-02 -.371E-02
   0.386E+00 -.589E+03 0.967E+03   -.392E+00 0.588E+03 -.963E+03   0.588E-02 0.308E+00 -.235E+01   -.144E-02 -.291E-02 0.412E-02
   0.959E+00 -.595E+03 -.964E+03   -.946E+00 0.594E+03 0.960E+03   -.270E-02 0.269E+00 0.236E+01   -.882E-02 -.199E-02 -.297E-02
   0.193E+01 -.154E+02 0.101E+02   -.192E+01 0.153E+02 -.101E+02   -.460E-02 0.198E-01 -.119E-01   -.853E-02 0.848E-03 -.258E-02
   0.324E+03 -.333E+03 -.449E+03   -.325E+03 0.334E+03 0.450E+03   0.378E+00 -.392E+00 -.519E+00   -.755E-02 -.652E-02 -.409E-02
   -.322E+03 -.335E+03 -.449E+03   0.322E+03 0.335E+03 0.449E+03   -.379E+00 -.405E+00 -.523E+00   -.886E-02 -.364E-02 -.773E-02
   0.741E+00 -.645E+03 0.378E+01   -.737E+00 0.645E+03 -.380E+01   -.252E-03 -.725E+00 0.205E-01   -.462E-02 -.492E-02 -.302E-02
   -.112E+02 0.193E+03 -.138E+03   0.909E+01 -.171E+03 0.123E+03   0.243E+01 -.176E+02 0.110E+02   -.172E-02 0.446E-03 -.140E-03
   -.758E+02 0.620E+03 -.408E+03   0.824E+02 -.674E+03 0.442E+03   -.637E+01 0.510E+02 -.324E+02   -.166E-02 0.551E-03 -.241E-03
 -----------------------------------------------------------------------------------------------
   0.375E+01 -.349E+02 0.228E+02   0.867E-12 -.455E-12 -.159E-11   -.358E+01 0.349E+02 -.228E+02   -.180E+00 -.189E-01 -.193E-01
 
 
 POSITION                                       TOTAL-FORCE (eV/Angst)
 -----------------------------------------------------------------------------------
     13.37281      9.84801     12.50759         0.713742      1.098447      0.295604
     20.15199     16.62719     12.50759        -1.109594     -0.719023      0.291562
     16.62719      9.84801     12.50759        -0.709392      1.100957      0.292789
      9.84801     16.62719     12.50759         1.107831     -0.718342      0.296810
     15.00000     11.47521     10.20639         0.001048      0.412638      1.284156
     15.00000     11.47521     19.79360        -0.002379      0.315878     -1.210389
     15.00000      8.28283     15.00000        -0.017420      1.531001     -0.057562
      8.28283     15.00000     15.00000         1.522469      0.001309     -0.009226
     21.71717     15.00000     15.00000        -1.521373      0.004431     -0.009307
     15.00000     21.71717     15.00000        -0.000108     -1.520086      0.001993
     18.35858     11.64142     10.25025        -0.754320      0.766973      1.072255
     18.35858     11.64142     19.74975        -0.727404      0.812558     -1.067468
     11.64142     18.35858     10.25025         0.756715     -0.758595      1.074320
     11.64142     18.35858     19.74975         0.764587     -0.752004     -1.077395
     11.64142     11.64142     10.25025         0.751646      0.771149      1.074424
     11.64142     11.64142     19.74975         0.756358      0.781550     -1.090712
     18.35858     18.35858     10.25025        -0.754087     -0.763728      1.075967
     18.35858     18.35858     19.74975        -0.767236     -0.747429     -1.079513
     13.37281      9.84801     17.49241         0.663230      1.046972     -0.254821
     20.15199     16.62719     17.49241        -1.109433     -0.707572     -0.291638
     16.73751     13.26249     12.54279         0.116012     -0.116766     -0.153920
      9.84801     13.37281     12.50759         1.106016      0.716928      0.279444
     16.62719     20.15199     12.50759        -0.709734     -1.108408      0.289833
     16.62719      9.84801     17.49241        -1.200744      0.022988      0.905118
      9.84801     16.62719     17.49241         1.108540     -0.703358     -0.292513
     20.15199     13.37281     12.50759        -1.102605      0.734177      0.266410
     13.37281     20.15199     12.50759         0.709296     -1.109483      0.288496
     13.26249     13.26249     12.54279        -0.127234     -0.102410     -0.171258
     15.00000     11.52498     15.00000         0.013752     -0.197861     -0.034808
     18.52479     15.00000     10.20639        -0.406392     -0.006306      1.292202
     18.52479     15.00000     19.79360        -0.405673     -0.011543     -1.281552
     11.47521     15.00000     10.20640         0.410083     -0.013972      1.289507
     11.47521     15.00000     19.79360         0.412014     -0.009232     -1.279741
     11.49535     11.49535     15.00000         0.839552      0.817038      0.025393
     18.50465     18.50465     15.00000        -0.824959     -0.825543     -0.000570
     18.50465     11.49535     15.00000        -0.882471      0.805559      0.050476
     11.49535     18.50465     15.00000         0.826466     -0.825612     -0.000477
     15.00000     15.00000     10.04368         0.000819     -0.000042      1.173286
     15.00000     15.00000     19.95633        -0.008180     -0.030533     -1.177857
      9.84801     13.37281     17.49241         1.111062      0.699158     -0.283950
     16.62719     20.15199     17.49241        -0.705327     -1.119377     -0.279624
     16.73751     13.26249     17.45721         0.126666     -0.070360      0.123217
     13.26249     16.73751     12.54279        -0.106759      0.116483     -0.156263
     13.26249     13.26249     17.45721        -0.121019     -0.091117      0.149323
     20.15199     13.37281     17.49241        -1.106854      0.703930     -0.282815
     13.37281     20.15199     17.49241         0.708260     -1.118226     -0.281618
     16.73751     16.73751     12.54279         0.112521      0.113942     -0.159114
     11.52498     15.00000     15.00000        -0.233481      0.000615     -0.006600
     18.47502     15.00000     15.00000         0.231467     -0.006257     -0.000104
     15.00000     18.52480     10.20639        -0.001762     -0.409582      1.285502
     15.00000     18.52480     19.79360         0.000986     -0.395902     -1.289809
     15.00000     15.00000     15.00000        -0.001742     -0.016192      0.012508
     13.26249     16.73751     17.45721        -0.109767      0.116768      0.159792
     16.73751     16.73751     17.45721         0.109031      0.132939      0.160872
     15.00000     18.47502     15.00000        -0.000454      0.229085     -0.006231
     15.78661      8.45856     19.18605         0.323253      4.129131     -3.255514
     15.90028      7.51328     19.79096         0.224482     -3.007745      2.031107
 -----------------------------------------------------------------------------------
    total drift:                               -0.004208     -0.000808      0.009199


--------------------------------------------------------------------------------------------------------



  FREE ENERGIE OF THE ION-ELECTRON SYSTEM (eV)
  ---------------------------------------------------
  free  energy   TOTEN  =      -174.28798370 eV

  energy  without entropy=     -174.15786080  energy(sigma->0) =     -174.25545297
 


--------------------------------------------------------------------------------------------------------


    POTLOK:  cpu time   11.3862: real time   11.3864


--------------------------------------------------------------------------------------------------------


     LOOP+:  cpu time16412.4883: real time16413.1933
    4ORBIT:  cpu time    0.0000: real time    0.0000

 total amount of memory used by VASP MPI-rank0  5486941. kBytes
=======================================================================

   base      :      30000. kBytes
   nonlr-proj:      17126. kBytes
   fftplans  :     924480. kBytes
   grid      :    1872000. kBytes
   one-center:        886. kBytes
   wavefun   :    2642449. kBytes
 
  
  
 General timing and accounting informations for this job:
 ========================================================
  
                  Total CPU time used (sec):    16487.480
                            User time (sec):    15544.118
                          System time (sec):      943.362
                         Elapsed time (sec):    16488.304
  
                   Maximum memory used (kb):     7178468.
                   Average memory used (kb):           0.
  
                          Minor page faults:    800988714
                          Major page faults:            0
                 Voluntary context switches:          656
