<?xml version="1.0" encoding="ISO-8859-1"?>
<modeling>
 <generator>
  <i name="program" type="string">vasp </i>
  <i name="version" type="string">5.4.4.18Apr17-6-g9f103f2a35  </i>
  <i name="subversion" type="string">(build Sep 03 2018 23:53:05) complex            parallel </i>
  <i name="platform" type="string">LinuxIFC </i>
  <i name="date" type="string">2021 11 28 </i>
  <i name="time" type="string">03:23:24 </i>
 </generator>
 <incar>
  <i type="string" name="SYSTEM"> 6_Pd100_top_free_z(O)</i>
  <i type="int" name="ISTART">     0</i>
  <i type="string" name="PREC">normal   			! encut=max(enmax), ngx,y,z</i>
  <i type="string" name="ALGO"> Fast     			! Mix RMM-DIIS and Dav</i>
  <i type="logical" name="ADDGRID"> F  </i>
  <i type="int" name="ISPIN">     1</i>
  <i type="int" name="ICHARG">     2</i>
  <i type="int" name="NELM">   100</i>
  <i type="int" name="NELMIN">     6</i>
  <i type="int" name="IBRION">     2</i>
  <i name="EDIFF">      0.00010000</i>
  <i name="EDIFFG">     -0.05000000</i>
  <i type="int" name="NSW">     0</i>
  <i type="int" name="ISIF">     2</i>
  <i type="int" name="ISYM">     2</i>
  <i name="ENCUT">    400.00000000</i>
  <i type="string" name="LREAL"> Auto     			! Auto or A projection done</i>
  <i type="int" name="ISMEAR">     2</i>
  <i name="SIGMA">      0.20000000</i>
  <i type="logical" name="LWAVE"> F  </i>
  <i type="logical" name="LCHARG"> F  </i>
  <v type="int" name="KPOINT_BSE">    -1     0     0     0</v>
  <i type="int" name="MAXMEM"> 10000</i>
  <i type="int" name="NELM">   100</i>
  <i type="string" name="GGA"> RP         			! Revised PBE</i>
 </incar>
 <structure name="primitive_cell" >
  <crystal>
   <varray name="basis" >
    <v>      30.00000000       0.00000000       0.00000000 </v>
    <v>       0.00000000      30.00000000       0.00000000 </v>
    <v>       0.00000000       0.00000000      30.00000000 </v>
   </varray>
   <i name="volume">  27000.00000000 </i>
   <varray name="rec_basis" >
    <v>       0.03333333       0.00000000       0.00000000 </v>
    <v>       0.00000000       0.03333333       0.00000000 </v>
    <v>       0.00000000       0.00000000       0.03333333 </v>
   </varray>
  </crystal>
  <varray name="positions" >
   <v>       0.44576020       0.32826710       0.41691983 </v>
   <v>      -0.44576020       0.32826710       0.41691983 </v>
   <v>      -0.50000000       0.38250690       0.34021317 </v>
   <v>      -0.50000000       0.27609440      -0.50000000 </v>
   <v>       0.38804720       0.38804720       0.34167483 </v>
   <v>      -0.50000000       0.38416601      -0.50000000 </v>
   <v>       0.44208300       0.44208300       0.41809300 </v>
   <v>       0.38317830       0.38317830      -0.50000000 </v>
   <v>      -0.44208300       0.44208300       0.41809300 </v>
   <v>       0.44576020       0.32826710      -0.41691977 </v>
   <v>       0.32826705       0.44576024       0.41691983 </v>
   <v>      -0.38804720       0.38804720       0.34167483 </v>
   <v>      -0.38317830       0.38317830      -0.50000000 </v>
   <v>      -0.50000000      -0.50000000       0.33478917 </v>
   <v>      -0.50000000      -0.50000000      -0.50000000 </v>
   <v>      -0.44576020       0.32826710      -0.41691977 </v>
   <v>       0.38250685      -0.49999995       0.34021317 </v>
   <v>       0.44208300       0.44208300      -0.41809297 </v>
   <v>       0.38416599      -0.49999998      -0.50000000 </v>
   <v>      -0.44208300       0.44208300      -0.41809297 </v>
   <v>       0.44208298      -0.44208298       0.41809300 </v>
   <v>       0.32826705       0.44576024      -0.41691977 </v>
   <v>      -0.47377963       0.28195203      -0.36046487 </v>
   <v>      -0.50000000       0.38250690      -0.34021320 </v>
   <v>       0.32826712      -0.44576022       0.41691983 </v>
   <v>      -0.38250685      -0.49999995       0.34021317 </v>
   <v>      -0.32826705       0.44576024       0.41691983 </v>
   <v>       0.27609443       0.49999998      -0.50000000 </v>
   <v>       0.38804720       0.38804720      -0.34167487 </v>
   <v>      -0.38416599      -0.49999998      -0.50000000 </v>
   <v>      -0.44208298      -0.44208298       0.41809300 </v>
   <v>      -0.46999063       0.25044283      -0.34030120 </v>
   <v>       0.44208298      -0.44208298      -0.41809297 </v>
   <v>      -0.38804720       0.38804720      -0.34167487 </v>
   <v>       0.38804722      -0.38804722       0.34167483 </v>
   <v>       0.38250685      -0.49999995      -0.34021320 </v>
   <v>       0.32826712      -0.44576022      -0.41691977 </v>
   <v>      -0.32826705       0.44576024      -0.41691977 </v>
   <v>       0.50000000      -0.38250681       0.34021317 </v>
   <v>      -0.50000000      -0.38416596      -0.50000000 </v>
   <v>      -0.44208298      -0.44208298      -0.41809297 </v>
   <v>      -0.50000000      -0.50000000      -0.33478913 </v>
   <v>       0.38317828      -0.38317828      -0.50000000 </v>
   <v>      -0.32826712      -0.44576022       0.41691983 </v>
   <v>      -0.27609443       0.49999998      -0.50000000 </v>
   <v>      -0.38804722      -0.38804722       0.34167483 </v>
   <v>      -0.38250685      -0.49999995      -0.34021320 </v>
   <v>       0.44576027      -0.32826707       0.41691983 </v>
   <v>      -0.38317828      -0.38317828      -0.50000000 </v>
   <v>      -0.32826712      -0.44576022      -0.41691977 </v>
   <v>      -0.44576027      -0.32826707       0.41691983 </v>
   <v>       0.38804722      -0.38804722      -0.34167487 </v>
   <v>      -0.50000000      -0.38250681      -0.34021320 </v>
   <v>       0.44576027      -0.32826707      -0.41691977 </v>
   <v>      -0.44576027      -0.32826707      -0.41691977 </v>
   <v>      -0.50000000      -0.27609445       0.50000000 </v>
   <v>      -0.38804722      -0.38804722      -0.34167487 </v>
  </varray>
 </structure>
 <varray name="primitive_index" >
  <v type="int" >        1 </v>
  <v type="int" >        3 </v>
  <v type="int" >        5 </v>
  <v type="int" >        7 </v>
  <v type="int" >       15 </v>
  <v type="int" >       29 </v>
  <v type="int" >       28 </v>
  <v type="int" >       34 </v>
  <v type="int" >       21 </v>
  <v type="int" >       19 </v>
  <v type="int" >       22 </v>
  <v type="int" >       11 </v>
  <v type="int" >       36 </v>
  <v type="int" >       38 </v>
  <v type="int" >       52 </v>
  <v type="int" >       24 </v>
  <v type="int" >       32 </v>
  <v type="int" >       44 </v>
  <v type="int" >       48 </v>
  <v type="int" >       42 </v>
  <v type="int" >       43 </v>
  <v type="int" >       40 </v>
  <v type="int" >       56 </v>
  <v type="int" >        6 </v>
  <v type="int" >        4 </v>
  <v type="int" >       30 </v>
  <v type="int" >       26 </v>
  <v type="int" >        8 </v>
  <v type="int" >       16 </v>
  <v type="int" >       49 </v>
  <v type="int" >       47 </v>
  <v type="int" >       57 </v>
  <v type="int" >       53 </v>
  <v type="int" >       12 </v>
  <v type="int" >       13 </v>
  <v type="int" >       33 </v>
  <v type="int" >       25 </v>
  <v type="int" >       45 </v>
  <v type="int" >       50 </v>
  <v type="int" >       55 </v>
  <v type="int" >       54 </v>
  <v type="int" >       39 </v>
  <v type="int" >       37 </v>
  <v type="int" >        2 </v>
  <v type="int" >        9 </v>
  <v type="int" >       17 </v>
  <v type="int" >       31 </v>
  <v type="int" >       27 </v>
  <v type="int" >       35 </v>
  <v type="int" >       20 </v>
  <v type="int" >       23 </v>
  <v type="int" >       14 </v>
  <v type="int" >       51 </v>
  <v type="int" >       46 </v>
  <v type="int" >       41 </v>
  <v type="int" >       10 </v>
  <v type="int" >       18 </v>
 </varray>
 <kpoints>
  <generation param="Monkhorst-Pack">
   <v type="int" name="divisions">       1        1        1 </v>
   <v name="usershift">      0.00000000       0.00000000       0.00000000 </v>
   <v name="genvec1">      1.00000000       0.00000000       0.00000000 </v>
   <v name="genvec2">      0.00000000       1.00000000       0.00000000 </v>
   <v name="genvec3">      0.00000000       0.00000000       1.00000000 </v>
   <v name="shift">      0.00000000       0.00000000       0.00000000 </v>
  </generation>
  <varray name="kpointlist" >
   <v>       0.00000000       0.00000000       0.00000000 </v>
  </varray>
  <varray name="weights" >
   <v>       1.00000000 </v>
  </varray>
 </kpoints>
 <parameters>
  <separator name="general" >
   <i type="string" name="SYSTEM">6_Pd100_top_free_z(O)</i>
   <i type="logical" name="LCOMPAT"> F  </i>
  </separator>
  <separator name="electronic" >
   <i type="string" name="PREC">normal</i>
   <i name="ENMAX">    400.00000000</i>
   <i name="ENAUG">    644.87300000</i>
   <i name="EDIFF">      0.00010000</i>
   <i type="int" name="IALGO">    68</i>
   <i type="int" name="IWAVPR">    10</i>
   <i type="int" name="NBANDS">   336</i>
   <i name="NELECT">    560.00000000</i>
   <i type="int" name="TURBO">     0</i>
   <i type="int" name="IRESTART">     0</i>
   <i type="int" name="NREBOOT">     0</i>
   <i type="int" name="NMIN">     0</i>
   <i name="EREF">      0.00000000</i>
   <separator name="electronic smearing" >
    <i type="int" name="ISMEAR">     2</i>
    <i name="SIGMA">      0.20000000</i>
    <i name="KSPACING">      0.50000000</i>
    <i type="logical" name="KGAMMA"> T  </i>
   </separator>
   <separator name="electronic projectors" >
    <i type="logical" name="LREAL"> T  </i>
    <v name="ROPT">     -0.00050000     -0.00050000     -0.00050000</v>
    <i type="int" name="LMAXPAW">  -100</i>
    <i type="int" name="LMAXMIX">     2</i>
    <i type="logical" name="NLSPLINE"> F  </i>
   </separator>
   <separator name="electronic startup" >
    <i type="int" name="ISTART">     0</i>
    <i type="int" name="ICHARG">     2</i>
    <i type="int" name="INIWAV">     1</i>
   </separator>
   <separator name="electronic spin" >
    <i type="int" name="ISPIN">     1</i>
    <i type="logical" name="LNONCOLLINEAR"> F  </i>
    <v name="MAGMOM">      1.00000000      1.00000000      1.00000000      1.00000000      1.00000000      1.00000000      1.00000000      1.00000000      1.00000000      1.00000000      1.00000000      1.00000000      1.00000000      1.00000000      1.00000000      1.00000000      1.00000000      1.00000000      1.00000000      1.00000000
      1.00000000      1.00000000      1.00000000      1.00000000      1.00000000      1.00000000      1.00000000      1.00000000      1.00000000      1.00000000      1.00000000      1.00000000      1.00000000      1.00000000      1.00000000      1.00000000      1.00000000      1.00000000      1.00000000      1.00000000
      1.00000000      1.00000000      1.00000000      1.00000000      1.00000000      1.00000000      1.00000000      1.00000000      1.00000000      1.00000000      1.00000000      1.00000000      1.00000000      1.00000000      1.00000000      1.00000000      1.00000000</v>
    <i name="NUPDOWN">     -1.00000000</i>
    <i type="logical" name="LSORBIT"> F  </i>
    <v name="SAXIS">      0.00000000      0.00000000      1.00000000</v>
    <i type="logical" name="LSPIRAL"> F  </i>
    <v name="QSPIRAL">      0.00000000      0.00000000      0.00000000</v>
    <i type="logical" name="LZEROZ"> F  </i>
   </separator>
   <separator name="electronic exchange-correlation" >
    <i type="logical" name="LASPH"> F  </i>
    <i type="logical" name="LMETAGGA"> F  </i>
   </separator>
   <separator name="electronic convergence" >
    <i type="int" name="NELM">   100</i>
    <i type="int" name="NELMDL">    -5</i>
    <i type="int" name="NELMIN">     6</i>
    <i name="ENINI">    400.00000000</i>
    <separator name="electronic convergence detail" >
     <i type="logical" name="LDIAG"> T  </i>
     <i type="logical" name="LSUBROT"> F  </i>
     <i name="WEIMIN">      0.00000000</i>
     <i name="EBREAK">      0.00000007</i>
     <i name="DEPER">      0.30000000</i>
     <i type="int" name="NRMM">     4</i>
     <i name="TIME">      0.40000000</i>
    </separator>
   </separator>
   <separator name="electronic mixer" >
    <i name="AMIX">      0.40000000</i>
    <i name="BMIX">      1.00000000</i>
    <i name="AMIN">      0.10000000</i>
    <i name="AMIX_MAG">      1.60000000</i>
    <i name="BMIX_MAG">      1.00000000</i>
    <separator name="electronic mixer details" >
     <i type="int" name="IMIX">     4</i>
     <i type="logical" name="MIXFIRST"> F  </i>
     <i type="int" name="MAXMIX">   -45</i>
     <i name="WC">    100.00000000</i>
     <i type="int" name="INIMIX">     1</i>
     <i type="int" name="MIXPRE">     1</i>
     <i type="int" name="MREMOVE">     5</i>
    </separator>
   </separator>
   <separator name="electronic dipolcorrection" >
    <i type="logical" name="LDIPOL"> F  </i>
    <i type="logical" name="LMONO"> F  </i>
    <i type="int" name="IDIPOL">     0</i>
    <i name="EPSILON">      1.00000000</i>
    <v name="DIPOL">   -100.00000000   -100.00000000   -100.00000000</v>
    <i name="EFIELD">      0.00000000</i>
   </separator>
  </separator>
  <separator name="grids" >
   <i type="int" name="NGX">   150</i>
   <i type="int" name="NGY">   150</i>
   <i type="int" name="NGZ">   150</i>
   <i type="int" name="NGXF">   300</i>
   <i type="int" name="NGYF">   300</i>
   <i type="int" name="NGZF">   300</i>
   <i type="logical" name="ADDGRID"> F  </i>
  </separator>
  <separator name="ionic" >
   <i type="int" name="NSW">     0</i>
   <i type="int" name="IBRION">    -1</i>
   <i type="int" name="MDALGO">     0</i>
   <i type="int" name="ISIF">     2</i>
   <i name="PSTRESS">      0.00000000</i>
   <i name="EDIFFG">     -0.05000000</i>
   <i type="int" name="NFREE">     1</i>
   <i name="POTIM">      0.50000000</i>
   <i name="SMASS">     -3.00000000</i>
   <i name="SCALEE">      1.00000000</i>
  </separator>
  <separator name="ionic md" >
   <i name="TEBEG">      0.00010000</i>
   <i name="TEEND">      0.00010000</i>
   <i type="int" name="NBLOCK">     1</i>
   <i type="int" name="KBLOCK">     1</i>
   <i type="int" name="NPACO">   256</i>
   <i name="APACO">     16.00000000</i>
  </separator>
  <separator name="symmetry" >
   <i type="int" name="ISYM">     2</i>
   <i name="SYMPREC">      0.00001000</i>
  </separator>
  <separator name="dos" >
   <i type="int" name="LORBIT">     0</i>
   <v name="RWIGS">     -1.00000000     -1.00000000     -1.00000000</v>
   <i type="int" name="NEDOS">   301</i>
   <i name="EMIN">     10.00000000</i>
   <i name="EMAX">    -10.00000000</i>
   <i name="EFERMI">      0.00000000</i>
  </separator>
  <separator name="writing" >
   <i type="int" name="NWRITE">     2</i>
   <i type="logical" name="LWAVE"> F  </i>
   <i type="logical" name="LDOWNSAMPLE"> F  </i>
   <i type="logical" name="LCHARG"> F  </i>
   <i type="logical" name="LPARD"> F  </i>
   <i type="logical" name="LVTOT"> F  </i>
   <i type="logical" name="LVHAR"> F  </i>
   <i type="logical" name="LELF"> F  </i>
   <i type="logical" name="LOPTICS"> F  </i>
   <v name="STM">      0.00000000      0.00000000      0.00000000      0.00000000      0.00000000      0.00000000      0.00000000</v>
  </separator>
  <separator name="performance" >
   <i type="int" name="NPAR">     1</i>
   <i type="int" name="NSIM">     4</i>
   <i type="int" name="NBLK">    -1</i>
   <i type="logical" name="LPLANE"> T  </i>
   <i type="logical" name="LSCALAPACK"> T  </i>
   <i type="logical" name="LSCAAWARE"> F  </i>
   <i type="logical" name="LSCALU"> F  </i>
   <i type="logical" name="LASYNC"> F  </i>
   <i type="logical" name="LORBITALREAL"> F  </i>
  </separator>
  <separator name="miscellaneous" >
   <i type="int" name="IDIOT">     3</i>
   <i type="int" name="ISPECIAL">     0</i>
   <i type="logical" name="LMUSIC"> F  </i>
   <v name="POMASS">    106.42000000     12.01100000     16.00000000</v>
   <v name="DARWINR">      0.00000000      0.00000000      0.00000000</v>
   <v name="DARWINV">      1.00000000      1.00000000      1.00000000</v>
   <i type="logical" name="LCORR"> T  </i>
  </separator>
  <i type="logical" name="GGA_COMPAT"> T  </i>
  <i type="logical" name="LBERRY"> F  </i>
  <i type="int" name="ICORELEVEL">     0</i>
  <i type="logical" name="LDAU"> F  </i>
  <i type="int" name="I_CONSTRAINED_M">     0</i>
  <separator name="electronic exchange-correlation" >
   <i type="string" name="GGA">RP</i>
   <i type="int" name="VOSKOWN">     0</i>
   <i type="logical" name="LHFCALC"> F  </i>
   <i type="string" name="PRECFOCK"></i>
   <i type="logical" name="LSYMGRAD"> F  </i>
   <i type="logical" name="LHFONE"> F  </i>
   <i type="logical" name="LRHFCALC"> F  </i>
   <i type="logical" name="LTHOMAS"> F  </i>
   <i type="logical" name="LMODELHF"> F  </i>
   <i name="ENCUT4O">     -1.00000000</i>
   <i type="int" name="EXXOEP">     0</i>
   <i type="int" name="FOURORBIT">     0</i>
   <i name="AEXX">      0.00000000</i>
   <i name="HFALPHA">      0.00000000</i>
   <i name="MCALPHA">      0.00000000</i>
   <i name="ALDAX">      1.00000000</i>
   <i name="AGGAX">      1.00000000</i>
   <i name="ALDAC">      1.00000000</i>
   <i name="AGGAC">      1.00000000</i>
   <i type="int" name="NKREDX">     1</i>
   <i type="int" name="NKREDY">     1</i>
   <i type="int" name="NKREDZ">     1</i>
   <i type="logical" name="SHIFTRED"> F  </i>
   <i type="logical" name="ODDONLY"> F  </i>
   <i type="logical" name="EVENONLY"> F  </i>
   <i type="int" name="LMAXFOCK">     0</i>
   <i type="int" name="NMAXFOCKAE">     0</i>
   <i type="logical" name="LFOCKAEDFT"> F  </i>
   <i name="HFSCREEN">      0.00000000</i>
   <i name="HFSCREENC">      0.00000000</i>
   <i type="int" name="NBANDSGWLOW">     0</i>
  </separator>
  <separator name="vdW DFT" >
   <i type="logical" name="LUSE_VDW"> F  </i>
   <i name="Zab_VDW">     -0.84910000</i>
   <i name="PARAM1">      0.12340000</i>
   <i name="PARAM2">      1.00000000</i>
   <i name="PARAM3">      0.00000000</i>
  </separator>
  <separator name="model GW" >
   <i type="int" name="MODEL_GW">     0</i>
   <i name="MODEL_EPS0">    284.21052632</i>
   <i name="MODEL_ALPHA">      1.00000000</i>
  </separator>
  <separator name="linear response parameters" >
   <i type="logical" name="LEPSILON"> F  </i>
   <i type="logical" name="LRPA"> F  </i>
   <i type="logical" name="LNABLA"> F  </i>
   <i type="logical" name="LVEL"> F  </i>
   <i type="int" name="KINTER">     0</i>
   <i name="CSHIFT">      0.10000000</i>
   <i name="OMEGAMAX">     -1.00000000</i>
   <i name="DEG_THRESHOLD">      0.00200000</i>
   <i name="RTIME">     -0.10000000</i>
   <i name="WPLASMAI">      0.00000000</i>
   <v name="DFIELD">      0.00000000      0.00000000      0.00000000</v>
   <v name="WPLASMA">      0.00000000      0.00000000      0.00000000      0.00000000      0.00000000      0.00000000      0.00000000      0.00000000      0.00000000</v>
  </separator>
  <separator name="orbital magnetization" >
   <i type="logical" name="NUCIND"> F  </i>
   <v name="MAGPOS">      0.00000000      0.00000000      0.00000000</v>
   <i type="logical" name="LNICSALL"> T  </i>
   <i type="logical" name="ORBITALMAG"> F  </i>
   <i type="logical" name="LMAGBLOCH"> F  </i>
   <i type="logical" name="LCHIMAG"> F  </i>
   <i type="logical" name="LGAUGE"> T  </i>
   <i type="int" name="MAGATOM">     0</i>
   <v name="MAGDIPOL">      0.00000000      0.00000000      0.00000000</v>
   <v name="AVECCONST">      0.00000000      0.00000000      0.00000000</v>
  </separator>
  <separator name="response functions" >
   <i type="logical" name="LADDER"> F  </i>
   <i type="logical" name="LRPAFORCE"> F  </i>
   <i type="logical" name="LFXC"> F  </i>
   <i type="logical" name="LHARTREE"> T  </i>
   <i type="int" name="IBSE">     0</i>
   <v type="int" name="KPOINT">    -1     0     0     0</v>
   <i type="logical" name="LTCTE"> F  </i>
   <i type="logical" name="LTETE"> F  </i>
   <i type="logical" name="LTRIPLET"> F  </i>
   <i type="logical" name="LFXCEPS"> F  </i>
   <i type="logical" name="LFXHEG"> F  </i>
   <i type="int" name="NATURALO">     2</i>
   <i type="logical" name="L2ORDER"> F  </i>
   <i type="logical" name="LMP2LT"> F  </i>
   <i type="logical" name="LUSEW"> F  </i>
   <i name="ENCUTGW">     -2.00000000</i>
   <i name="ENCUTGWSOFT">     -2.00000000</i>
   <i name="ENCUTLF">     -1.00000000</i>
   <i type="int" name="LMAXMP2">    -1</i>
   <i name="SCISSOR">      0.00000000</i>
   <i type="int" name="NOMEGA">     0</i>
   <i type="int" name="NOMEGAR">     0</i>
   <i type="int" name="NBANDSGW">    -1</i>
   <i type="int" name="NBANDSO">    -1</i>
   <i type="int" name="NBANDSV">    -1</i>
   <i type="int" name="NELM">   100</i>
   <i type="int" name="NELMHF">     1</i>
   <i type="int" name="DIM">     3</i>
   <i type="int" name="ANTIRES">     0</i>
   <i name="OMEGAMAX">    -30.00000000</i>
   <i name="OMEGAMIN">    -30.00000000</i>
   <i name="OMEGATL">   -200.00000000</i>
   <i type="int" name="OMEGAGRID">   140</i>
   <i name="CSHIFT">     -0.10000000</i>
   <i type="logical" name="SELFENERGY"> F  </i>
   <i type="logical" name="LSPECTRAL"> F  </i>
   <i type="logical" name="LSPECTRALGW"> F  </i>
   <i type="logical" name="LSINGLES"> F  </i>
   <i type="logical" name="LFERMIGW"> F  </i>
   <i type="logical" name="ODDONLYGW"> F  </i>
   <i type="logical" name="EVENONLYGW"> F  </i>
   <i type="int" name="NKREDLFX">     1</i>
   <i type="int" name="NKREDLFY">     1</i>
   <i type="int" name="NKREDLFZ">     1</i>
   <i type="int" name="MAXMEM"> 10000</i>
   <i type="int" name="TELESCOPE">     0</i>
   <i type="int" name="TAUPAR">     1</i>
   <i type="int" name="OMEGAPAR">    -1</i>
   <i name="LAMBDA">      1.00000000</i>
  </separator>
  <separator name="External order field" >
   <i name="OFIELD_KAPPA">      0.00000000</i>
   <v name="OFIELD_K">      0.00000000      0.00000000      0.00000000</v>
   <i name="OFIELD_Q6_NEAR">      0.00000000</i>
   <i name="OFIELD_Q6_FAR">      0.00000000</i>
   <i name="OFIELD_A">      0.00000000</i>
  </separator>
 </parameters>
 <atominfo>
  <atoms>      57 </atoms>
  <types>       3 </types>
  <array name="atoms" >
   <dimension dim="1">ion</dimension>
   <field type="string">element</field>
   <field type="int">atomtype</field>
   <set>
    <rc><c>Pd</c><c>   1</c></rc>
    <rc><c>Pd</c><c>   1</c></rc>
    <rc><c>Pd</c><c>   1</c></rc>
    <rc><c>Pd</c><c>   1</c></rc>
    <rc><c>Pd</c><c>   1</c></rc>
    <rc><c>Pd</c><c>   1</c></rc>
    <rc><c>Pd</c><c>   1</c></rc>
    <rc><c>Pd</c><c>   1</c></rc>
    <rc><c>Pd</c><c>   1</c></rc>
    <rc><c>Pd</c><c>   1</c></rc>
    <rc><c>Pd</c><c>   1</c></rc>
    <rc><c>Pd</c><c>   1</c></rc>
    <rc><c>Pd</c><c>   1</c></rc>
    <rc><c>Pd</c><c>   1</c></rc>
    <rc><c>Pd</c><c>   1</c></rc>
    <rc><c>Pd</c><c>   1</c></rc>
    <rc><c>Pd</c><c>   1</c></rc>
    <rc><c>Pd</c><c>   1</c></rc>
    <rc><c>Pd</c><c>   1</c></rc>
    <rc><c>Pd</c><c>   1</c></rc>
    <rc><c>Pd</c><c>   1</c></rc>
    <rc><c>Pd</c><c>   1</c></rc>
    <rc><c>Pd</c><c>   1</c></rc>
    <rc><c>Pd</c><c>   1</c></rc>
    <rc><c>Pd</c><c>   1</c></rc>
    <rc><c>Pd</c><c>   1</c></rc>
    <rc><c>Pd</c><c>   1</c></rc>
    <rc><c>Pd</c><c>   1</c></rc>
    <rc><c>Pd</c><c>   1</c></rc>
    <rc><c>Pd</c><c>   1</c></rc>
    <rc><c>Pd</c><c>   1</c></rc>
    <rc><c>Pd</c><c>   1</c></rc>
    <rc><c>Pd</c><c>   1</c></rc>
    <rc><c>Pd</c><c>   1</c></rc>
    <rc><c>Pd</c><c>   1</c></rc>
    <rc><c>Pd</c><c>   1</c></rc>
    <rc><c>Pd</c><c>   1</c></rc>
    <rc><c>Pd</c><c>   1</c></rc>
    <rc><c>Pd</c><c>   1</c></rc>
    <rc><c>Pd</c><c>   1</c></rc>
    <rc><c>Pd</c><c>   1</c></rc>
    <rc><c>Pd</c><c>   1</c></rc>
    <rc><c>Pd</c><c>   1</c></rc>
    <rc><c>Pd</c><c>   1</c></rc>
    <rc><c>Pd</c><c>   1</c></rc>
    <rc><c>Pd</c><c>   1</c></rc>
    <rc><c>Pd</c><c>   1</c></rc>
    <rc><c>Pd</c><c>   1</c></rc>
    <rc><c>Pd</c><c>   1</c></rc>
    <rc><c>Pd</c><c>   1</c></rc>
    <rc><c>Pd</c><c>   1</c></rc>
    <rc><c>Pd</c><c>   1</c></rc>
    <rc><c>Pd</c><c>   1</c></rc>
    <rc><c>Pd</c><c>   1</c></rc>
    <rc><c>Pd</c><c>   1</c></rc>
    <rc><c>C </c><c>   2</c></rc>
    <rc><c>O </c><c>   3</c></rc>
   </set>
  </array>
  <array name="atomtypes" >
   <dimension dim="1">type</dimension>
   <field type="int">atomspertype</field>
   <field type="string">element</field>
   <field>mass</field>
   <field>valence</field>
   <field type="string">pseudopotential</field>
   <set>
    <rc><c>  55</c><c>Pd</c><c>    106.42000000</c><c>     10.00000000</c><c>  PAW_PBE Pd 04Jan2005                  </c></rc>
    <rc><c>   1</c><c>C </c><c>     12.01100000</c><c>      4.00000000</c><c>  PAW_PBE C 08Apr2002                   </c></rc>
    <rc><c>   1</c><c>O </c><c>     16.00000000</c><c>      6.00000000</c><c>  PAW_PBE O 08Apr2002                   </c></rc>
   </set>
  </array>
 </atominfo>
 <structure name="initialpos" >
  <crystal>
   <varray name="basis" >
    <v>      30.00000000       0.00000000       0.00000000 </v>
    <v>       0.00000000      30.00000000       0.00000000 </v>
    <v>       0.00000000       0.00000000      30.00000000 </v>
   </varray>
   <i name="volume">  27000.00000000 </i>
   <varray name="rec_basis" >
    <v>       0.03333333       0.00000000       0.00000000 </v>
    <v>       0.00000000       0.03333333       0.00000000 </v>
    <v>       0.00000000       0.00000000       0.03333333 </v>
   </varray>
  </crystal>
  <varray name="positions" >
   <v>       0.44576020       0.32826710       0.41691983 </v>
   <v>       0.67173288       0.55423978       0.41691983 </v>
   <v>       0.55423980       0.32826710       0.41691983 </v>
   <v>       0.32826712       0.55423978       0.41691983 </v>
   <v>       0.50000000       0.38250690       0.34021317 </v>
   <v>       0.50000000       0.38250690       0.65978680 </v>
   <v>       0.50000000       0.27609440       0.50000000 </v>
   <v>       0.27609443       0.49999998       0.50000000 </v>
   <v>       0.72390557       0.49999998       0.50000000 </v>
   <v>       0.50000000       0.72390555       0.50000000 </v>
   <v>       0.61195280       0.38804720       0.34167483 </v>
   <v>       0.61195280       0.38804720       0.65832513 </v>
   <v>       0.38804722       0.61195278       0.34167483 </v>
   <v>       0.38804722       0.61195278       0.65832513 </v>
   <v>       0.38804720       0.38804720       0.34167483 </v>
   <v>       0.38804720       0.38804720       0.65832513 </v>
   <v>       0.61195278       0.61195278       0.34167483 </v>
   <v>       0.61195278       0.61195278       0.65832513 </v>
   <v>       0.44576020       0.32826710       0.58308023 </v>
   <v>       0.67173288       0.55423978       0.58308023 </v>
   <v>       0.55791699       0.44208301       0.41809300 </v>
   <v>       0.32826705       0.44576024       0.41691983 </v>
   <v>       0.55423973       0.67173293       0.41691983 </v>
   <v>       0.55423980       0.32826710       0.58308023 </v>
   <v>       0.32826712       0.55423978       0.58308023 </v>
   <v>       0.67173295       0.44576024       0.41691983 </v>
   <v>       0.44576027       0.67173293       0.41691983 </v>
   <v>       0.44208301       0.44208301       0.41809300 </v>
   <v>       0.50000000       0.38416601       0.50000000 </v>
   <v>       0.61749315       0.50000005       0.34021317 </v>
   <v>       0.61749315       0.50000005       0.65978680 </v>
   <v>       0.38250685       0.50000005       0.34021317 </v>
   <v>       0.38250685       0.50000005       0.65978680 </v>
   <v>       0.38317830       0.38317830       0.50000000 </v>
   <v>       0.61682172       0.61682172       0.50000000 </v>
   <v>       0.61682170       0.38317830       0.50000000 </v>
   <v>       0.38317828       0.61682172       0.50000000 </v>
   <v>       0.50000000       0.50000000       0.33478917 </v>
   <v>       0.50000000       0.50000000       0.66521087 </v>
   <v>       0.32826705       0.44576024       0.58308023 </v>
   <v>       0.55423973       0.67173293       0.58308023 </v>
   <v>       0.55791699       0.44208301       0.58190703 </v>
   <v>       0.44208298       0.55791702       0.41809300 </v>
   <v>       0.44208301       0.44208301       0.58190703 </v>
   <v>       0.67173295       0.44576024       0.58308023 </v>
   <v>       0.44576027       0.67173293       0.58308023 </v>
   <v>       0.55791702       0.55791702       0.41809300 </v>
   <v>       0.38416599       0.50000002       0.50000000 </v>
   <v>       0.61583401       0.50000002       0.50000000 </v>
   <v>       0.50000000       0.61749319       0.34021317 </v>
   <v>       0.50000000       0.61749319       0.65978680 </v>
   <v>       0.50000000       0.50000000       0.50000000 </v>
   <v>       0.44208298       0.55791702       0.58190703 </v>
   <v>       0.55791702       0.55791702       0.58190703 </v>
   <v>       0.50000000       0.61583404       0.50000000 </v>
   <v>       0.52622037       0.28195203       0.63953513 </v>
   <v>       0.53000937       0.25044283       0.65969880 </v>
  </varray>
  <varray name="selective"  type="logical" >
   <v type="logical" >  F  F  F </v>
   <v type="logical" >  F  F  F </v>
   <v type="logical" >  F  F  F </v>
   <v type="logical" >  F  F  F </v>
   <v type="logical" >  F  F  F </v>
   <v type="logical" >  F  F  F </v>
   <v type="logical" >  F  F  F </v>
   <v type="logical" >  F  F  F </v>
   <v type="logical" >  F  F  F </v>
   <v type="logical" >  F  F  F </v>
   <v type="logical" >  F  F  F </v>
   <v type="logical" >  F  F  F </v>
   <v type="logical" >  F  F  F </v>
   <v type="logical" >  F  F  F </v>
   <v type="logical" >  F  F  F </v>
   <v type="logical" >  F  F  F </v>
   <v type="logical" >  F  F  F </v>
   <v type="logical" >  F  F  F </v>
   <v type="logical" >  F  F  F </v>
   <v type="logical" >  F  F  F </v>
   <v type="logical" >  F  F  F </v>
   <v type="logical" >  F  F  F </v>
   <v type="logical" >  F  F  F </v>
   <v type="logical" >  F  F  F </v>
   <v type="logical" >  F  F  F </v>
   <v type="logical" >  F  F  F </v>
   <v type="logical" >  F  F  F </v>
   <v type="logical" >  F  F  F </v>
   <v type="logical" >  F  F  F </v>
   <v type="logical" >  F  F  F </v>
   <v type="logical" >  F  F  F </v>
   <v type="logical" >  F  F  F </v>
   <v type="logical" >  F  F  F </v>
   <v type="logical" >  F  F  F </v>
   <v type="logical" >  F  F  F </v>
   <v type="logical" >  F  F  F </v>
   <v type="logical" >  F  F  F </v>
   <v type="logical" >  F  F  F </v>
   <v type="logical" >  F  F  F </v>
   <v type="logical" >  F  F  F </v>
   <v type="logical" >  F  F  F </v>
   <v type="logical" >  F  F  F </v>
   <v type="logical" >  F  F  F </v>
   <v type="logical" >  F  F  F </v>
   <v type="logical" >  F  F  F </v>
   <v type="logical" >  F  F  F </v>
   <v type="logical" >  F  F  F </v>
   <v type="logical" >  F  F  F </v>
   <v type="logical" >  F  F  F </v>
   <v type="logical" >  F  F  F </v>
   <v type="logical" >  F  F  F </v>
   <v type="logical" >  F  F  F </v>
   <v type="logical" >  F  F  F </v>
   <v type="logical" >  F  F  F </v>
   <v type="logical" >  F  F  F </v>
   <v type="logical" >  F  F  F </v>
   <v type="logical" >  F  F  F </v>
  </varray>
  <nose>
   <v>      -3.00000000       0.00000000       0.00010000       0.00010000 </v>
  </nose>
 </structure>
 <calculation>
  <scstep>
   <time name="dav">  374.88  374.95</time>
   <time name="total">  389.34  389.41</time>
   <energy>
    <i name="alphaZ">     75.25431677 </i>
    <i name="ewald"> 137921.14909054 </i>
    <i name="hartreedc">-181286.97561062 </i>
    <i name="XCdc">  -1703.57975613 </i>
    <i name="pawpsdc">  44873.02882129 </i>
    <i name="pawaedc"> -41398.84523641 </i>
    <i name="eentropy">      0.01544283 </i>
    <i name="bandstr">    816.46516710 </i>
    <i name="atom">  45086.50549395 </i>
    <i name="e_fr_energy">   4383.01772932 </i>
    <i name="e_wo_entrp">   4383.00228649 </i>
    <i name="e_0_energy">   4383.01386861 </i>
   </energy>
  </scstep>
  <scstep>
   <time name="dav">  595.82  595.83</time>
   <time name="total">  595.82  595.83</time>
   <energy>
    <i name="e_fr_energy">   2010.10831383 </i>
    <i name="e_wo_entrp">   2010.13550972 </i>
    <i name="e_0_energy">   2010.11511280 </i>
   </energy>
  </scstep>
  <scstep>
   <time name="dav">  508.95  508.97</time>
   <time name="total">  508.95  508.97</time>
   <energy>
    <i name="e_fr_energy">    231.19857317 </i>
    <i name="e_wo_entrp">    231.23305245 </i>
    <i name="e_0_energy">    231.20719299 </i>
   </energy>
  </scstep>
  <scstep>
   <time name="dav">  433.39  433.40</time>
   <time name="total">  433.39  433.40</time>
   <energy>
    <i name="e_fr_energy">   -135.52096762 </i>
    <i name="e_wo_entrp">   -135.52656954 </i>
    <i name="e_0_energy">   -135.52236810 </i>
   </energy>
  </scstep>
  <scstep>
   <time name="dav">  521.47  521.49</time>
   <time name="total">  547.77  547.79</time>
   <energy>
    <i name="e_fr_energy">   -179.04872694 </i>
    <i name="e_wo_entrp">   -179.54425162 </i>
    <i name="e_0_energy">   -179.17260811 </i>
   </energy>
  </scstep>
  <scstep>
   <time name="diag">   69.59   69.59</time>
   <time name="diis">  192.49  192.49</time>
   <time name="orth">   13.47   13.47</time>
   <time name="total">  315.95  315.96</time>
   <energy>
    <i name="e_fr_energy">   -177.82180401 </i>
    <i name="e_wo_entrp">   -177.57407368 </i>
    <i name="e_0_energy">   -177.75987143 </i>
   </energy>
  </scstep>
  <scstep>
   <time name="diag">   69.24   69.24</time>
   <time name="diis">  222.41  222.41</time>
   <time name="orth">   13.77   13.77</time>
   <time name="total">  345.64  345.65</time>
   <energy>
    <i name="e_fr_energy">   -179.90634141 </i>
    <i name="e_wo_entrp">   -179.77718226 </i>
    <i name="e_0_energy">   -179.87405162 </i>
   </energy>
  </scstep>
  <scstep>
   <time name="diag">   69.91   69.91</time>
   <time name="diis">  194.78  194.78</time>
   <time name="orth">   13.89   13.89</time>
   <time name="total">  318.99  319.00</time>
   <energy>
    <i name="e_fr_energy">   -181.77528918 </i>
    <i name="e_wo_entrp">   -181.65241799 </i>
    <i name="e_0_energy">   -181.74457138 </i>
   </energy>
  </scstep>
  <scstep>
   <time name="diag">   68.69   68.69</time>
   <time name="diis">  197.43  197.43</time>
   <time name="orth">   13.57   13.57</time>
   <time name="total">  319.92  319.92</time>
   <energy>
    <i name="e_fr_energy">   -181.59749494 </i>
    <i name="e_wo_entrp">   -181.58806315 </i>
    <i name="e_0_energy">   -181.59513699 </i>
   </energy>
  </scstep>
  <scstep>
   <time name="diag">   68.43   68.43</time>
   <time name="diis">  197.59  197.60</time>
   <time name="orth">   13.59   13.59</time>
   <time name="total">  319.52  319.53</time>
   <energy>
    <i name="e_fr_energy">   -178.12397190 </i>
    <i name="e_wo_entrp">   -178.07430982 </i>
    <i name="e_0_energy">   -178.11155638 </i>
   </energy>
  </scstep>
  <scstep>
   <time name="diag">   68.49   68.49</time>
   <time name="diis">  193.08  193.08</time>
   <time name="orth">   13.43   13.43</time>
   <time name="total">  314.94  314.95</time>
   <energy>
    <i name="e_fr_energy">   -176.61653663 </i>
    <i name="e_wo_entrp">   -176.42294347 </i>
    <i name="e_0_energy">   -176.56813834 </i>
   </energy>
  </scstep>
  <scstep>
   <time name="diag">   67.27   67.27</time>
   <time name="diis">  191.21  191.21</time>
   <time name="orth">   13.15   13.16</time>
   <time name="total">  310.52  310.52</time>
   <energy>
    <i name="e_fr_energy">   -175.91547293 </i>
    <i name="e_wo_entrp">   -175.82326396 </i>
    <i name="e_0_energy">   -175.89242068 </i>
   </energy>
  </scstep>
  <scstep>
   <time name="diag">   68.23   68.23</time>
   <time name="diis">  188.85  188.86</time>
   <time name="orth">   13.61   13.61</time>
   <time name="total">  310.26  310.27</time>
   <energy>
    <i name="e_fr_energy">   -176.52221623 </i>
    <i name="e_wo_entrp">   -176.40330005 </i>
    <i name="e_0_energy">   -176.49248719 </i>
   </energy>
  </scstep>
  <scstep>
   <time name="diag">   69.40   69.40</time>
   <time name="diis">  186.70  186.71</time>
   <time name="orth">   13.71   13.71</time>
   <time name="total">  310.34  310.35</time>
   <energy>
    <i name="e_fr_energy">   -176.33857081 </i>
    <i name="e_wo_entrp">   -176.22753415 </i>
    <i name="e_0_energy">   -176.31081164 </i>
   </energy>
  </scstep>
  <scstep>
   <time name="diag">   66.76   66.76</time>
   <time name="diis">  184.36  184.36</time>
   <time name="orth">   13.46   13.46</time>
   <time name="total">  303.49  303.50</time>
   <energy>
    <i name="e_fr_energy">   -175.70483219 </i>
    <i name="e_wo_entrp">   -175.62655299 </i>
    <i name="e_0_energy">   -175.68526239 </i>
   </energy>
  </scstep>
  <scstep>
   <time name="diag">   67.04   67.04</time>
   <time name="diis">  184.85  184.85</time>
   <time name="orth">   12.98   12.98</time>
   <time name="total">  303.06  303.07</time>
   <energy>
    <i name="e_fr_energy">   -175.80925031 </i>
    <i name="e_wo_entrp">   -175.90650343 </i>
    <i name="e_0_energy">   -175.83356359 </i>
   </energy>
  </scstep>
  <scstep>
   <time name="diag">   66.61   66.61</time>
   <time name="diis">  172.89  172.89</time>
   <time name="orth">   12.77   12.77</time>
   <time name="total">  290.28  290.30</time>
   <energy>
    <i name="e_fr_energy">   -175.11516488 </i>
    <i name="e_wo_entrp">   -175.15978269 </i>
    <i name="e_0_energy">   -175.12631933 </i>
   </energy>
  </scstep>
  <scstep>
   <time name="diag">   64.87   64.87</time>
   <time name="diis">  174.53  174.53</time>
   <time name="orth">   12.75   12.75</time>
   <time name="total">  289.29  289.30</time>
   <energy>
    <i name="e_fr_energy">   -174.98375821 </i>
    <i name="e_wo_entrp">   -174.99455610 </i>
    <i name="e_0_energy">   -174.98645768 </i>
   </energy>
  </scstep>
  <scstep>
   <time name="diag">   64.56   64.56</time>
   <time name="diis">  173.24  173.24</time>
   <time name="orth">   12.70   12.70</time>
   <time name="total">  287.39  287.40</time>
   <energy>
    <i name="e_fr_energy">   -174.89782503 </i>
    <i name="e_wo_entrp">   -174.79844648 </i>
    <i name="e_0_energy">   -174.87298039 </i>
   </energy>
  </scstep>
  <scstep>
   <time name="diag">   64.67   64.67</time>
   <time name="diis">  168.68  168.68</time>
   <time name="orth">   12.52   12.52</time>
   <time name="total">  282.66  282.66</time>
   <energy>
    <i name="e_fr_energy">   -174.72601371 </i>
    <i name="e_wo_entrp">   -174.57630573 </i>
    <i name="e_0_energy">   -174.68858672 </i>
   </energy>
  </scstep>
  <scstep>
   <time name="diag">   63.51   63.51</time>
   <time name="diis">  166.90  166.90</time>
   <time name="orth">   12.51   12.51</time>
   <time name="total">  279.07  279.08</time>
   <energy>
    <i name="e_fr_energy">   -174.58975969 </i>
    <i name="e_wo_entrp">   -174.44123474 </i>
    <i name="e_0_energy">   -174.55262845 </i>
   </energy>
  </scstep>
  <scstep>
   <time name="diag">   63.18   63.18</time>
   <time name="diis">  165.44  165.44</time>
   <time name="orth">   11.96   11.96</time>
   <time name="total">  275.84  275.84</time>
   <energy>
    <i name="e_fr_energy">   -174.46730156 </i>
    <i name="e_wo_entrp">   -174.31732110 </i>
    <i name="e_0_energy">   -174.42980645 </i>
   </energy>
  </scstep>
  <scstep>
   <time name="diag">   61.36   61.36</time>
   <time name="diis">  160.61  160.62</time>
   <time name="orth">   12.12   12.12</time>
   <time name="total">  268.91  268.92</time>
   <energy>
    <i name="e_fr_energy">   -174.41843144 </i>
    <i name="e_wo_entrp">   -174.27920607 </i>
    <i name="e_0_energy">   -174.38362510 </i>
   </energy>
  </scstep>
  <scstep>
   <time name="diag">   61.03   61.03</time>
   <time name="diis">  160.76  160.77</time>
   <time name="orth">   12.01   12.01</time>
   <time name="total">  268.73  268.74</time>
   <energy>
    <i name="e_fr_energy">   -174.38199571 </i>
    <i name="e_wo_entrp">   -174.24858543 </i>
    <i name="e_0_energy">   -174.34864314 </i>
   </energy>
  </scstep>
  <scstep>
   <time name="diag">   61.42   61.42</time>
   <time name="diis">  160.03  160.04</time>
   <time name="orth">   12.03   12.03</time>
   <time name="total">  268.36  268.38</time>
   <energy>
    <i name="e_fr_energy">   -174.35755228 </i>
    <i name="e_wo_entrp">   -174.22580802 </i>
    <i name="e_0_energy">   -174.32461621 </i>
   </energy>
  </scstep>
  <scstep>
   <time name="diag">   61.35   61.35</time>
   <time name="diis">  156.44  156.45</time>
   <time name="orth">   11.73   11.73</time>
   <time name="total">  263.72  263.73</time>
   <energy>
    <i name="e_fr_energy">   -174.33564526 </i>
    <i name="e_wo_entrp">   -174.19178640 </i>
    <i name="e_0_energy">   -174.29968055 </i>
   </energy>
  </scstep>
  <scstep>
   <time name="diag">   59.24   59.24</time>
   <time name="diis">  154.89  154.89</time>
   <time name="orth">   11.70   11.70</time>
   <time name="total">  259.51  259.52</time>
   <energy>
    <i name="e_fr_energy">   -174.29571769 </i>
    <i name="e_wo_entrp">   -174.15449513 </i>
    <i name="e_0_energy">   -174.26041205 </i>
   </energy>
  </scstep>
  <scstep>
   <time name="diag">   59.32   59.32</time>
   <time name="diis">  155.73  155.73</time>
   <time name="orth">   11.69   11.69</time>
   <time name="total">  260.53  260.55</time>
   <energy>
    <i name="e_fr_energy">   -174.29042120 </i>
    <i name="e_wo_entrp">   -174.15216245 </i>
    <i name="e_0_energy">   -174.25585651 </i>
   </energy>
  </scstep>
  <scstep>
   <time name="diag">   59.23   59.23</time>
   <time name="diis">  154.92  154.93</time>
   <time name="orth">   11.69   11.69</time>
   <time name="total">  259.64  259.65</time>
   <energy>
    <i name="e_fr_energy">   -174.28228104 </i>
    <i name="e_wo_entrp">   -174.15203208 </i>
    <i name="e_0_energy">   -174.24971880 </i>
   </energy>
  </scstep>
  <scstep>
   <time name="diag">   59.21   59.21</time>
   <time name="diis">  154.76  154.77</time>
   <time name="orth">   11.69   11.69</time>
   <time name="total">  259.55  259.56</time>
   <energy>
    <i name="e_fr_energy">   -174.27038180 </i>
    <i name="e_wo_entrp">   -174.13180692 </i>
    <i name="e_0_energy">   -174.23573808 </i>
   </energy>
  </scstep>
  <scstep>
   <time name="diag">   59.29   59.29</time>
   <time name="diis">  154.77  154.78</time>
   <time name="orth">   11.75   11.75</time>
   <time name="total">  259.85  259.86</time>
   <energy>
    <i name="e_fr_energy">   -174.26647688 </i>
    <i name="e_wo_entrp">   -174.13156093 </i>
    <i name="e_0_energy">   -174.23274789 </i>
   </energy>
  </scstep>
  <scstep>
   <time name="diag">   59.33   59.33</time>
   <time name="diis">  154.97  154.98</time>
   <time name="orth">   12.22   12.23</time>
   <time name="total">  261.62  261.63</time>
   <energy>
    <i name="e_fr_energy">   -174.26346315 </i>
    <i name="e_wo_entrp">   -174.12951029 </i>
    <i name="e_0_energy">   -174.22997494 </i>
   </energy>
  </scstep>
  <scstep>
   <time name="diag">   60.02   60.03</time>
   <time name="diis">  157.05  157.06</time>
   <time name="orth">   11.78   11.78</time>
   <time name="total">  264.17  264.19</time>
   <energy>
    <i name="e_fr_energy">   -174.25977709 </i>
    <i name="e_wo_entrp">   -174.12732539 </i>
    <i name="e_0_energy">   -174.22666417 </i>
   </energy>
  </scstep>
  <scstep>
   <time name="diag">   60.18   60.19</time>
   <time name="diis">  156.16  156.17</time>
   <time name="orth">   11.97   11.97</time>
   <time name="total">  263.36  263.38</time>
   <energy>
    <i name="e_fr_energy">   -174.25935567 </i>
    <i name="e_wo_entrp">   -174.12510205 </i>
    <i name="e_0_energy">   -174.22579226 </i>
   </energy>
  </scstep>
  <scstep>
   <time name="diag">   60.30   60.31</time>
   <time name="diis">  155.09  155.10</time>
   <time name="orth">   11.96   11.96</time>
   <time name="total">  262.78  262.79</time>
   <energy>
    <i name="e_fr_energy">   -174.26104761 </i>
    <i name="e_wo_entrp">   -174.12769136 </i>
    <i name="e_0_energy">   -174.22770855 </i>
   </energy>
  </scstep>
  <scstep>
   <time name="diag">   60.46   60.47</time>
   <time name="diis">  154.51  154.51</time>
   <time name="orth">   11.82   11.82</time>
   <time name="total">  261.88  261.89</time>
   <energy>
    <i name="e_fr_energy">   -174.26191430 </i>
    <i name="e_wo_entrp">   -174.12907872 </i>
    <i name="e_0_energy">   -174.22870540 </i>
   </energy>
  </scstep>
  <scstep>
   <time name="diag">   60.44   60.44</time>
   <time name="diis">  156.34  156.35</time>
   <time name="orth">   11.79   11.79</time>
   <time name="total">  263.43  263.44</time>
   <energy>
    <i name="e_fr_energy">   -174.26412160 </i>
    <i name="e_wo_entrp">   -174.13303765 </i>
    <i name="e_0_energy">   -174.23135061 </i>
   </energy>
  </scstep>
  <scstep>
   <time name="diag">   59.52   59.52</time>
   <time name="diis">  154.31  154.32</time>
   <time name="orth">   11.97   11.97</time>
   <time name="total">  261.20  261.22</time>
   <energy>
    <i name="e_fr_energy">   -174.26879986 </i>
    <i name="e_wo_entrp">   -174.13975983 </i>
    <i name="e_0_energy">   -174.23653985 </i>
   </energy>
  </scstep>
  <scstep>
   <time name="diag">   60.48   60.48</time>
   <time name="diis">  148.13  148.14</time>
   <time name="orth">   11.79   11.79</time>
   <time name="total">  255.83  255.84</time>
   <energy>
    <i name="e_fr_energy">   -174.27004097 </i>
    <i name="e_wo_entrp">   -174.14174742 </i>
    <i name="e_0_energy">   -174.23796758 </i>
   </energy>
  </scstep>
  <scstep>
   <time name="diag">   59.81   59.81</time>
   <time name="diis">  135.66  135.67</time>
   <time name="orth">   11.82   11.82</time>
   <time name="total">  242.51  242.52</time>
   <energy>
    <i name="e_fr_energy">   -174.27313267 </i>
    <i name="e_wo_entrp">   -174.14524320 </i>
    <i name="e_0_energy">   -174.24116030 </i>
   </energy>
  </scstep>
  <scstep>
   <time name="diag">   59.56   59.56</time>
   <time name="diis">  118.92  118.93</time>
   <time name="orth">   11.95   11.95</time>
   <time name="total">  226.29  226.31</time>
   <energy>
    <i name="e_fr_energy">   -174.27508631 </i>
    <i name="e_wo_entrp">   -174.14568329 </i>
    <i name="e_0_energy">   -174.24273555 </i>
   </energy>
  </scstep>
  <scstep>
   <time name="diag">   60.53   60.53</time>
   <time name="diis">  103.62  103.63</time>
   <time name="orth">   11.78   11.78</time>
   <time name="total">  211.62  211.63</time>
   <energy>
    <i name="e_fr_energy">   -174.27641464 </i>
    <i name="e_wo_entrp">   -174.14627313 </i>
    <i name="e_0_energy">   -174.24387926 </i>
   </energy>
  </scstep>
  <scstep>
   <time name="diag">   59.59   59.59</time>
   <time name="diis">   98.88   98.89</time>
   <time name="orth">   11.83   11.83</time>
   <time name="total">  205.84  205.85</time>
   <energy>
    <i name="e_fr_energy">   -174.27751217 </i>
    <i name="e_wo_entrp">   -174.14713435 </i>
    <i name="e_0_energy">   -174.24491772 </i>
   </energy>
  </scstep>
  <scstep>
   <time name="diag">   59.96   59.96</time>
   <time name="diis">   96.17   96.17</time>
   <time name="orth">   11.84   11.84</time>
   <time name="total">  203.71  203.72</time>
   <energy>
    <i name="e_fr_energy">   -174.27801630 </i>
    <i name="e_wo_entrp">   -174.14827291 </i>
    <i name="e_0_energy">   -174.24558045 </i>
   </energy>
  </scstep>
  <scstep>
   <time name="diag">   59.94   59.94</time>
   <time name="diis">   98.14   98.14</time>
   <time name="orth">   11.84   11.84</time>
   <time name="total">  205.74  205.75</time>
   <energy>
    <i name="e_fr_energy">   -174.27936723 </i>
    <i name="e_wo_entrp">   -174.14944465 </i>
    <i name="e_0_energy">   -174.24688658 </i>
   </energy>
  </scstep>
  <scstep>
   <time name="diag">   60.55   60.55</time>
   <time name="diis">  101.29  101.29</time>
   <time name="orth">   12.11   12.11</time>
   <time name="total">  210.54  210.55</time>
   <energy>
    <i name="e_fr_energy">   -174.28060194 </i>
    <i name="e_wo_entrp">   -174.15084272 </i>
    <i name="e_0_energy">   -174.24816214 </i>
   </energy>
  </scstep>
  <scstep>
   <time name="diag">   61.10   61.10</time>
   <time name="diis">   99.89   99.89</time>
   <time name="orth">   11.80   11.80</time>
   <time name="total">  209.18  209.18</time>
   <energy>
    <i name="e_fr_energy">   -174.28239889 </i>
    <i name="e_wo_entrp">   -174.15231160 </i>
    <i name="e_0_energy">   -174.24987707 </i>
   </energy>
  </scstep>
  <scstep>
   <time name="diag">   59.45   59.45</time>
   <time name="diis">   99.73   99.73</time>
   <time name="orth">   11.82   11.82</time>
   <time name="total">  207.23  207.24</time>
   <energy>
    <i name="e_fr_energy">   -174.28414219 </i>
    <i name="e_wo_entrp">   -174.15413813 </i>
    <i name="e_0_energy">   -174.25164118 </i>
   </energy>
  </scstep>
  <scstep>
   <time name="diag">   59.82   59.83</time>
   <time name="diis">  100.01  100.01</time>
   <time name="orth">   11.82   11.82</time>
   <time name="total">  208.05  208.06</time>
   <energy>
    <i name="e_fr_energy">   -174.28496268 </i>
    <i name="e_wo_entrp">   -174.15476897 </i>
    <i name="e_0_energy">   -174.25241425 </i>
   </energy>
  </scstep>
  <scstep>
   <time name="diag">   59.95   59.95</time>
   <time name="diis">   98.09   98.10</time>
   <time name="orth">   11.80   11.80</time>
   <time name="total">  206.23  206.24</time>
   <energy>
    <i name="e_fr_energy">   -174.28624829 </i>
    <i name="e_wo_entrp">   -174.15608308 </i>
    <i name="e_0_energy">   -174.25370699 </i>
   </energy>
  </scstep>
  <scstep>
   <time name="diag">   59.84   59.84</time>
   <time name="diis">   98.73   98.73</time>
   <time name="orth">   11.84   11.84</time>
   <time name="total">  206.66  206.66</time>
   <energy>
    <i name="e_fr_energy">   -174.28642907 </i>
    <i name="e_wo_entrp">   -174.15640329 </i>
    <i name="e_0_energy">   -174.25392262 </i>
   </energy>
  </scstep>
  <scstep>
   <time name="diag">   59.55   59.56</time>
   <time name="diis">   96.23   96.23</time>
   <time name="orth">   12.01   12.01</time>
   <time name="total">  204.78  204.79</time>
   <energy>
    <i name="e_fr_energy">   -174.28682047 </i>
    <i name="e_wo_entrp">   -174.15679367 </i>
    <i name="e_0_energy">   -174.25431377 </i>
   </energy>
  </scstep>
  <scstep>
   <time name="diag">   60.26   60.26</time>
   <time name="diis">   81.82   81.82</time>
   <time name="orth">   12.06   12.06</time>
   <time name="total">  191.61  191.61</time>
   <energy>
    <i name="e_fr_energy">   -174.28706184 </i>
    <i name="e_wo_entrp">   -174.15695616 </i>
    <i name="e_0_energy">   -174.25453542 </i>
   </energy>
  </scstep>
  <scstep>
   <time name="diag">   60.74   60.74</time>
   <time name="diis">   74.02   74.02</time>
   <time name="orth">   12.24   12.24</time>
   <time name="total">  184.88  184.88</time>
   <energy>
    <i name="e_fr_energy">   -174.28721742 </i>
    <i name="e_wo_entrp">   -174.15726296 </i>
    <i name="e_0_energy">   -174.25472880 </i>
   </energy>
  </scstep>
  <scstep>
   <time name="diag">   59.52   59.53</time>
   <time name="diis">   69.29   69.29</time>
   <time name="orth">   11.81   11.81</time>
   <time name="total">  177.25  177.26</time>
   <energy>
    <i name="e_fr_energy">   -174.28746665 </i>
    <i name="e_wo_entrp">   -174.15740703 </i>
    <i name="e_0_energy">   -174.25495175 </i>
   </energy>
  </scstep>
  <scstep>
   <time name="diag">   59.96   59.96</time>
   <time name="diis">   71.89   71.89</time>
   <time name="orth">   11.81   11.81</time>
   <time name="total">  180.02  180.02</time>
   <energy>
    <i name="e_fr_energy">   -174.28759137 </i>
    <i name="e_wo_entrp">   -174.15754981 </i>
    <i name="e_0_energy">   -174.25508098 </i>
   </energy>
  </scstep>
  <scstep>
   <time name="diag">   59.92   59.92</time>
   <time name="diis">   76.94   76.94</time>
   <time name="orth">   11.81   11.81</time>
   <time name="total">  185.10  185.10</time>
   <energy>
    <i name="e_fr_energy">   -174.28778345 </i>
    <i name="e_wo_entrp">   -174.15771595 </i>
    <i name="e_0_energy">   -174.25526657 </i>
   </energy>
  </scstep>
  <scstep>
   <time name="diag">   59.83   59.83</time>
   <time name="diis">   70.64   70.64</time>
   <time name="orth">   11.81   11.81</time>
   <time name="total">  178.80  178.80</time>
   <energy>
    <i name="e_fr_energy">   -174.28792115 </i>
    <i name="e_wo_entrp">   -174.15780691 </i>
    <i name="e_0_energy">   -174.25539259 </i>
   </energy>
  </scstep>
  <scstep>
   <time name="diag">   59.55   59.55</time>
   <time name="diis">   63.26   63.26</time>
   <time name="orth">   11.81   11.81</time>
   <time name="total">  145.99  146.00</time>
   <energy>
    <i name="alphaZ">     75.25431677 </i>
    <i name="ewald"> 137921.14909054 </i>
    <i name="hartreedc">-182282.56061422 </i>
    <i name="XCdc">  -1693.06699160 </i>
    <i name="pawpsdc">  46058.24243567 </i>
    <i name="pawaedc"> -42528.28631034 </i>
    <i name="eentropy">     -0.13012290 </i>
    <i name="bandstr">  -2811.39528157 </i>
    <i name="atom">  45086.50549395 </i>
    <i name="e_fr_energy">   -174.28798370 </i>
    <i name="e_wo_entrp">   -174.15786080 </i>
    <i name="e_0_energy">   -174.25545297 </i>
   </energy>
  </scstep>
  <structure>
   <crystal>
    <varray name="basis" >
     <v>      30.00000000       0.00000000       0.00000000 </v>
     <v>       0.00000000      30.00000000       0.00000000 </v>
     <v>       0.00000000       0.00000000      30.00000000 </v>
    </varray>
    <i name="volume">  27000.00000000 </i>
    <varray name="rec_basis" >
     <v>       0.03333333       0.00000000       0.00000000 </v>
     <v>       0.00000000       0.03333333       0.00000000 </v>
     <v>       0.00000000       0.00000000       0.03333333 </v>
    </varray>
   </crystal>
   <varray name="positions" >
    <v>       0.44576020       0.32826710       0.41691983 </v>
    <v>       0.67173288       0.55423978       0.41691983 </v>
    <v>       0.55423980       0.32826710       0.41691983 </v>
    <v>       0.32826712       0.55423978       0.41691983 </v>
    <v>       0.50000000       0.38250690       0.34021317 </v>
    <v>       0.50000000       0.38250690       0.65978680 </v>
    <v>       0.50000000       0.27609440       0.50000000 </v>
    <v>       0.27609443       0.49999998       0.50000000 </v>
    <v>       0.72390557       0.49999998       0.50000000 </v>
    <v>       0.50000000       0.72390555       0.50000000 </v>
    <v>       0.61195280       0.38804720       0.34167483 </v>
    <v>       0.61195280       0.38804720       0.65832513 </v>
    <v>       0.38804722       0.61195278       0.34167483 </v>
    <v>       0.38804722       0.61195278       0.65832513 </v>
    <v>       0.38804720       0.38804720       0.34167483 </v>
    <v>       0.38804720       0.38804720       0.65832513 </v>
    <v>       0.61195278       0.61195278       0.34167483 </v>
    <v>       0.61195278       0.61195278       0.65832513 </v>
    <v>       0.44576020       0.32826710       0.58308023 </v>
    <v>       0.67173288       0.55423978       0.58308023 </v>
    <v>       0.55791699       0.44208301       0.41809300 </v>
    <v>       0.32826705       0.44576024       0.41691983 </v>
    <v>       0.55423973       0.67173293       0.41691983 </v>
    <v>       0.55423980       0.32826710       0.58308023 </v>
    <v>       0.32826712       0.55423978       0.58308023 </v>
    <v>       0.67173295       0.44576024       0.41691983 </v>
    <v>       0.44576027       0.67173293       0.41691983 </v>
    <v>       0.44208301       0.44208301       0.41809300 </v>
    <v>       0.50000000       0.38416601       0.50000000 </v>
    <v>       0.61749315       0.50000005       0.34021317 </v>
    <v>       0.61749315       0.50000005       0.65978680 </v>
    <v>       0.38250685       0.50000005       0.34021317 </v>
    <v>       0.38250685       0.50000005       0.65978680 </v>
    <v>       0.38317830       0.38317830       0.50000000 </v>
    <v>       0.61682172       0.61682172       0.50000000 </v>
    <v>       0.61682170       0.38317830       0.50000000 </v>
    <v>       0.38317828       0.61682172       0.50000000 </v>
    <v>       0.50000000       0.50000000       0.33478917 </v>
    <v>       0.50000000       0.50000000       0.66521087 </v>
    <v>       0.32826705       0.44576024       0.58308023 </v>
    <v>       0.55423973       0.67173293       0.58308023 </v>
    <v>       0.55791699       0.44208301       0.58190703 </v>
    <v>       0.44208298       0.55791702       0.41809300 </v>
    <v>       0.44208301       0.44208301       0.58190703 </v>
    <v>       0.67173295       0.44576024       0.58308023 </v>
    <v>       0.44576027       0.67173293       0.58308023 </v>
    <v>       0.55791702       0.55791702       0.41809300 </v>
    <v>       0.38416599       0.50000002       0.50000000 </v>
    <v>       0.61583401       0.50000002       0.50000000 </v>
    <v>       0.50000000       0.61749319       0.34021317 </v>
    <v>       0.50000000       0.61749319       0.65978680 </v>
    <v>       0.50000000       0.50000000       0.50000000 </v>
    <v>       0.44208298       0.55791702       0.58190703 </v>
    <v>       0.55791702       0.55791702       0.58190703 </v>
    <v>       0.50000000       0.61583404       0.50000000 </v>
    <v>       0.52622037       0.28195203       0.63953513 </v>
    <v>       0.53000937       0.25044283       0.65969880 </v>
   </varray>
  </structure>
  <varray name="forces" >
   <v>       0.71374236       1.09844738       0.29560411 </v>
   <v>      -1.10959393      -0.71902330       0.29156166 </v>
   <v>      -0.70939161       1.10095731       0.29278939 </v>
   <v>       1.10783129      -0.71834162       0.29681020 </v>
   <v>       0.00104767       0.41263786       1.28415618 </v>
   <v>      -0.00237950       0.31587832      -1.21038916 </v>
   <v>      -0.01741951       1.53100086      -0.05756209 </v>
   <v>       1.52246895       0.00130866      -0.00922611 </v>
   <v>      -1.52137304       0.00443122      -0.00930719 </v>
   <v>      -0.00010806      -1.52008639       0.00199332 </v>
   <v>      -0.75431983       0.76697283       1.07225476 </v>
   <v>      -0.72740363       0.81255811      -1.06746842 </v>
   <v>       0.75671526      -0.75859533       1.07432038 </v>
   <v>       0.76458720      -0.75200390      -1.07739512 </v>
   <v>       0.75164614       0.77114905       1.07442443 </v>
   <v>       0.75635813       0.78155013      -1.09071163 </v>
   <v>      -0.75408745      -0.76372815       1.07596673 </v>
   <v>      -0.76723625      -0.74742855      -1.07951330 </v>
   <v>       0.66323033       1.04697182      -0.25482092 </v>
   <v>      -1.10943294      -0.70757208      -0.29163768 </v>
   <v>       0.11601190      -0.11676550      -0.15392029 </v>
   <v>       1.10601640       0.71692754       0.27944445 </v>
   <v>      -0.70973392      -1.10840808       0.28983255 </v>
   <v>      -1.20074390       0.02298846       0.90511838 </v>
   <v>       1.10853994      -0.70335841      -0.29251269 </v>
   <v>      -1.10260486       0.73417719       0.26641005 </v>
   <v>       0.70929565      -1.10948293       0.28849603 </v>
   <v>      -0.12723368      -0.10241045      -0.17125760 </v>
   <v>       0.01375157      -0.19786103      -0.03480788 </v>
   <v>      -0.40639165      -0.00630552       1.29220171 </v>
   <v>      -0.40567281      -0.01154316      -1.28155163 </v>
   <v>       0.41008318      -0.01397183       1.28950692 </v>
   <v>       0.41201363      -0.00923214      -1.27974060 </v>
   <v>       0.83955165       0.81703776       0.02539268 </v>
   <v>      -0.82495930      -0.82554251      -0.00057008 </v>
   <v>      -0.88247109       0.80555874       0.05047603 </v>
   <v>       0.82646585      -0.82561215      -0.00047722 </v>
   <v>       0.00081913      -0.00004167       1.17328556 </v>
   <v>      -0.00818013      -0.03053261      -1.17785701 </v>
   <v>       1.11106185       0.69915777      -0.28395027 </v>
   <v>      -0.70532748      -1.11937732      -0.27962386 </v>
   <v>       0.12666600      -0.07035962       0.12321714 </v>
   <v>      -0.10675874       0.11648344      -0.15626280 </v>
   <v>      -0.12101918      -0.09111692       0.14932337 </v>
   <v>      -1.10685449       0.70393017      -0.28281453 </v>
   <v>       0.70825997      -1.11822630      -0.28161791 </v>
   <v>       0.11252098       0.11394198      -0.15911427 </v>
   <v>      -0.23348121       0.00061527      -0.00659960 </v>
   <v>       0.23146676      -0.00625703      -0.00010442 </v>
   <v>      -0.00176191      -0.40958178       1.28550159 </v>
   <v>       0.00098560      -0.39590172      -1.28980855 </v>
   <v>      -0.00174239      -0.01619188       0.01250796 </v>
   <v>      -0.10976690       0.11676764       0.15979213 </v>
   <v>       0.10903133       0.13293918       0.16087197 </v>
   <v>      -0.00045431       0.22908463      -0.00623067 </v>
   <v>       0.32325339       4.12913129      -3.25551351 </v>
   <v>       0.22448159      -3.00774474       2.03110730 </v>
  </varray>
  <varray name="stress" >
   <v>      -6.78462826      -0.05561928       0.07286495 </v>
   <v>      -0.05561930      -6.68868802      -0.00322589 </v>
   <v>       0.07286496      -0.00322587      -6.80477005 </v>
  </varray>
  <energy>
   <i name="e_fr_energy">   -174.28798370 </i>
   <i name="e_wo_entrp">   -174.25545297 </i>
   <i name="e_0_energy">     -0.13012290 </i>
  </energy>
  <time name="totalsc">16412.4916413.19</time>
  <eigenvalues>
   <array>
    <dimension dim="1">band</dimension>
    <dimension dim="2">kpoint</dimension>
    <dimension dim="3">spin</dimension>
    <field>eigene</field>
    <field>occ</field>
    <set>
     <set comment="spin 1">
      <set comment="kpoint 1">
       <r>  -28.8937    1.0000 </r>
       <r>  -13.4904    1.0000 </r>
       <r>  -11.2649    1.0000 </r>
       <r>  -11.2389    1.0000 </r>
       <r>   -9.7460    1.0000 </r>
       <r>   -6.6433    1.0000 </r>
       <r>   -6.1271    1.0000 </r>
       <r>   -6.1268    1.0000 </r>
       <r>   -6.1167    1.0000 </r>
       <r>   -5.8176    1.0000 </r>
       <r>   -5.8165    1.0000 </r>
       <r>   -5.8156    1.0000 </r>
       <r>   -5.7486    1.0000 </r>
       <r>   -5.7152    1.0000 </r>
       <r>   -5.6919    1.0000 </r>
       <r>   -5.6862    1.0000 </r>
       <r>   -5.6848    1.0000 </r>
       <r>   -5.6401    1.0000 </r>
       <r>   -5.6394    1.0000 </r>
       <r>   -5.6239    1.0000 </r>
       <r>   -5.6097    1.0000 </r>
       <r>   -5.6000    1.0000 </r>
       <r>   -5.5977    1.0000 </r>
       <r>   -5.5890    1.0000 </r>
       <r>   -5.5592    1.0000 </r>
       <r>   -5.5501    1.0000 </r>
       <r>   -5.5495    1.0000 </r>
       <r>   -5.5493    1.0000 </r>
       <r>   -5.5341    1.0000 </r>
       <r>   -5.5274    1.0000 </r>
       <r>   -5.5238    1.0000 </r>
       <r>   -5.5213    1.0000 </r>
       <r>   -5.5197    1.0000 </r>
       <r>   -5.5143    1.0000 </r>
       <r>   -5.5138    1.0000 </r>
       <r>   -5.5067    1.0000 </r>
       <r>   -5.4958    1.0000 </r>
       <r>   -5.4839    1.0000 </r>
       <r>   -5.4798    1.0000 </r>
       <r>   -5.4726    1.0000 </r>
       <r>   -5.4714    1.0000 </r>
       <r>   -5.4702    1.0000 </r>
       <r>   -5.4683    1.0000 </r>
       <r>   -5.4619    1.0000 </r>
       <r>   -5.4576    1.0000 </r>
       <r>   -5.4351    1.0000 </r>
       <r>   -5.4311    1.0000 </r>
       <r>   -5.4292    1.0000 </r>
       <r>   -5.4273    1.0000 </r>
       <r>   -5.4265    1.0000 </r>
       <r>   -5.4224    1.0000 </r>
       <r>   -5.4084    1.0000 </r>
       <r>   -5.4074    1.0000 </r>
       <r>   -5.4035    1.0000 </r>
       <r>   -5.3906    1.0000 </r>
       <r>   -5.3777    1.0000 </r>
       <r>   -5.3662    1.0000 </r>
       <r>   -5.3274    1.0000 </r>
       <r>   -5.3247    1.0000 </r>
       <r>   -5.3239    1.0000 </r>
       <r>   -5.3223    1.0000 </r>
       <r>   -5.3177    1.0000 </r>
       <r>   -5.3162    1.0000 </r>
       <r>   -5.3029    1.0000 </r>
       <r>   -5.3012    1.0000 </r>
       <r>   -5.2922    1.0000 </r>
       <r>   -5.2893    1.0000 </r>
       <r>   -5.2507    1.0000 </r>
       <r>   -5.2147    1.0000 </r>
       <r>   -5.2132    1.0000 </r>
       <r>   -5.2056    1.0000 </r>
       <r>   -5.2026    1.0000 </r>
       <r>   -5.1902    1.0000 </r>
       <r>   -5.1820    1.0000 </r>
       <r>   -5.1809    1.0000 </r>
       <r>   -5.1805    1.0000 </r>
       <r>   -5.1753    1.0000 </r>
       <r>   -5.1654    1.0000 </r>
       <r>   -5.1603    1.0000 </r>
       <r>   -5.1530    1.0000 </r>
       <r>   -5.1407    1.0000 </r>
       <r>   -5.1339    1.0000 </r>
       <r>   -5.1252    1.0000 </r>
       <r>   -5.1150    1.0000 </r>
       <r>   -5.1089    1.0000 </r>
       <r>   -5.1075    1.0000 </r>
       <r>   -5.1057    1.0000 </r>
       <r>   -5.0769    1.0000 </r>
       <r>   -5.0727    1.0000 </r>
       <r>   -5.0575    1.0000 </r>
       <r>   -5.0548    1.0000 </r>
       <r>   -5.0538    1.0000 </r>
       <r>   -5.0525    1.0000 </r>
       <r>   -5.0507    1.0000 </r>
       <r>   -5.0504    1.0000 </r>
       <r>   -5.0408    1.0000 </r>
       <r>   -5.0358    1.0000 </r>
       <r>   -5.0315    1.0000 </r>
       <r>   -5.0263    1.0000 </r>
       <r>   -5.0242    1.0000 </r>
       <r>   -5.0216    1.0000 </r>
       <r>   -5.0185    1.0000 </r>
       <r>   -5.0081    1.0000 </r>
       <r>   -5.0016    1.0000 </r>
       <r>   -5.0004    1.0000 </r>
       <r>   -4.9930    1.0000 </r>
       <r>   -4.9910    1.0000 </r>
       <r>   -4.9886    1.0000 </r>
       <r>   -4.9835    1.0000 </r>
       <r>   -4.9792    1.0000 </r>
       <r>   -4.9773    1.0000 </r>
       <r>   -4.9643    1.0000 </r>
       <r>   -4.9614    1.0000 </r>
       <r>   -4.9579    1.0000 </r>
       <r>   -4.9550    1.0000 </r>
       <r>   -4.9526    1.0000 </r>
       <r>   -4.9340    1.0000 </r>
       <r>   -4.9268    1.0000 </r>
       <r>   -4.9256    1.0000 </r>
       <r>   -4.9162    1.0000 </r>
       <r>   -4.9156    1.0000 </r>
       <r>   -4.9082    1.0000 </r>
       <r>   -4.9062    1.0000 </r>
       <r>   -4.9033    1.0000 </r>
       <r>   -4.9027    1.0000 </r>
       <r>   -4.9004    1.0000 </r>
       <r>   -4.8572    1.0000 </r>
       <r>   -4.8563    1.0000 </r>
       <r>   -4.8498    1.0000 </r>
       <r>   -4.8444    1.0000 </r>
       <r>   -4.8429    1.0000 </r>
       <r>   -4.8392    1.0000 </r>
       <r>   -4.8374    1.0000 </r>
       <r>   -4.8327    1.0000 </r>
       <r>   -4.8309    1.0000 </r>
       <r>   -4.8080    0.9999 </r>
       <r>   -4.7977    0.9999 </r>
       <r>   -4.7963    0.9999 </r>
       <r>   -4.7764    0.9998 </r>
       <r>   -4.7724    0.9998 </r>
       <r>   -4.7677    0.9998 </r>
       <r>   -4.7612    0.9998 </r>
       <r>   -4.7447    0.9997 </r>
       <r>   -4.7408    0.9996 </r>
       <r>   -4.7382    0.9996 </r>
       <r>   -4.7365    0.9996 </r>
       <r>   -4.7266    0.9995 </r>
       <r>   -4.7079    0.9992 </r>
       <r>   -4.7041    0.9992 </r>
       <r>   -4.6984    0.9991 </r>
       <r>   -4.6874    0.9989 </r>
       <r>   -4.6868    0.9989 </r>
       <r>   -4.6805    0.9987 </r>
       <r>   -4.6727    0.9985 </r>
       <r>   -4.6709    0.9985 </r>
       <r>   -4.6689    0.9984 </r>
       <r>   -4.6683    0.9984 </r>
       <r>   -4.6676    0.9984 </r>
       <r>   -4.6655    0.9984 </r>
       <r>   -4.6518    0.9979 </r>
       <r>   -4.6497    0.9979 </r>
       <r>   -4.6482    0.9978 </r>
       <r>   -4.6481    0.9978 </r>
       <r>   -4.6464    0.9978 </r>
       <r>   -4.6456    0.9978 </r>
       <r>   -4.6435    0.9977 </r>
       <r>   -4.6423    0.9976 </r>
       <r>   -4.6324    0.9973 </r>
       <r>   -4.6310    0.9972 </r>
       <r>   -4.6089    0.9964 </r>
       <r>   -4.6048    0.9963 </r>
       <r>   -4.6020    0.9962 </r>
       <r>   -4.5979    0.9960 </r>
       <r>   -4.5963    0.9960 </r>
       <r>   -4.5935    0.9959 </r>
       <r>   -4.5904    0.9958 </r>
       <r>   -4.5901    0.9958 </r>
       <r>   -4.5882    0.9957 </r>
       <r>   -4.5863    0.9956 </r>
       <r>   -4.5764    0.9954 </r>
       <r>   -4.5761    0.9953 </r>
       <r>   -4.5637    0.9951 </r>
       <r>   -4.5558    0.9951 </r>
       <r>   -4.5544    0.9951 </r>
       <r>   -4.5538    0.9951 </r>
       <r>   -4.5515    0.9951 </r>
       <r>   -4.5506    0.9951 </r>
       <r>   -4.5493    0.9951 </r>
       <r>   -4.5492    0.9951 </r>
       <r>   -4.5321    0.9955 </r>
       <r>   -4.5228    0.9961 </r>
       <r>   -4.5191    0.9964 </r>
       <r>   -4.5079    0.9975 </r>
       <r>   -4.5069    0.9976 </r>
       <r>   -4.5055    0.9978 </r>
       <r>   -4.4952    0.9993 </r>
       <r>   -4.4888    1.0004 </r>
       <r>   -4.4864    1.0009 </r>
       <r>   -4.4772    1.0030 </r>
       <r>   -4.4746    1.0036 </r>
       <r>   -4.4688    1.0052 </r>
       <r>   -4.4660    1.0060 </r>
       <r>   -4.4639    1.0066 </r>
       <r>   -4.4582    1.0084 </r>
       <r>   -4.4531    1.0102 </r>
       <r>   -4.4523    1.0105 </r>
       <r>   -4.4455    1.0130 </r>
       <r>   -4.4450    1.0132 </r>
       <r>   -4.4423    1.0142 </r>
       <r>   -4.4404    1.0150 </r>
       <r>   -4.4259    1.0212 </r>
       <r>   -4.4185    1.0247 </r>
       <r>   -4.4128    1.0274 </r>
       <r>   -4.4090    1.0292 </r>
       <r>   -4.4069    1.0302 </r>
       <r>   -4.4058    1.0308 </r>
       <r>   -4.4042    1.0315 </r>
       <r>   -4.4020    1.0326 </r>
       <r>   -4.4001    1.0335 </r>
       <r>   -4.3816    1.0419 </r>
       <r>   -4.3678    1.0471 </r>
       <r>   -4.3654    1.0479 </r>
       <r>   -4.3568    1.0501 </r>
       <r>   -4.3516    1.0510 </r>
       <r>   -4.3435    1.0516 </r>
       <r>   -4.3381    1.0514 </r>
       <r>   -4.3372    1.0514 </r>
       <r>   -4.3357    1.0512 </r>
       <r>   -4.3334    1.0508 </r>
       <r>   -4.3327    1.0507 </r>
       <r>   -4.3316    1.0505 </r>
       <r>   -4.3314    1.0504 </r>
       <r>   -4.3263    1.0491 </r>
       <r>   -4.3256    1.0488 </r>
       <r>   -4.3253    1.0487 </r>
       <r>   -4.3247    1.0485 </r>
       <r>   -4.3234    1.0480 </r>
       <r>   -4.3214    1.0472 </r>
       <r>   -4.3214    1.0472 </r>
       <r>   -4.3085    1.0394 </r>
       <r>   -4.3061    1.0374 </r>
       <r>   -4.3050    1.0364 </r>
       <r>   -4.2939    1.0247 </r>
       <r>   -4.2901    1.0197 </r>
       <r>   -4.2862    1.0142 </r>
       <r>   -4.2851    1.0125 </r>
       <r>   -4.2834    1.0099 </r>
       <r>   -4.2799    1.0041 </r>
       <r>   -4.2786    1.0018 </r>
       <r>   -4.2710    0.9874 </r>
       <r>   -4.2665    0.9777 </r>
       <r>   -4.2608    0.9645 </r>
       <r>   -4.2582    0.9581 </r>
       <r>   -4.2560    0.9523 </r>
       <r>   -4.2550    0.9497 </r>
       <r>   -4.2492    0.9336 </r>
       <r>   -4.2489    0.9328 </r>
       <r>   -4.2461    0.9246 </r>
       <r>   -4.2443    0.9191 </r>
       <r>   -4.2436    0.9170 </r>
       <r>   -4.2412    0.9092 </r>
       <r>   -4.2395    0.9039 </r>
       <r>   -4.2381    0.8991 </r>
       <r>   -4.2371    0.8958 </r>
       <r>   -4.2359    0.8919 </r>
       <r>   -4.2253    0.8538 </r>
       <r>   -4.2228    0.8444 </r>
       <r>   -4.2205    0.8352 </r>
       <r>   -4.2192    0.8302 </r>
       <r>   -4.2181    0.8257 </r>
       <r>   -4.2152    0.8140 </r>
       <r>   -4.2151    0.8134 </r>
       <r>   -4.1957    0.7275 </r>
       <r>   -4.1909    0.7045 </r>
       <r>   -4.1849    0.6752 </r>
       <r>   -4.1803    0.6525 </r>
       <r>   -4.1795    0.6483 </r>
       <r>   -4.1768    0.6350 </r>
       <r>   -4.1729    0.6146 </r>
       <r>   -4.1714    0.6071 </r>
       <r>   -4.1702    0.6008 </r>
       <r>   -4.1578    0.5358 </r>
       <r>   -4.1333    0.4068 </r>
       <r>   -4.1280    0.3798 </r>
       <r>   -4.1276    0.3777 </r>
       <r>   -4.1271    0.3750 </r>
       <r>   -4.1252    0.3655 </r>
       <r>   -4.1152    0.3154 </r>
       <r>   -4.1113    0.2966 </r>
       <r>   -3.9597   -0.0516 </r>
       <r>   -3.8321   -0.0049 </r>
       <r>   -3.8247   -0.0030 </r>
       <r>   -3.8135   -0.0005 </r>
       <r>   -3.7768    0.0041 </r>
       <r>   -3.4908    0.0001 </r>
       <r>   -3.4852    0.0001 </r>
       <r>   -3.3891    0.0000 </r>
       <r>   -3.0716    0.0000 </r>
       <r>   -3.0654    0.0000 </r>
       <r>   -3.0506    0.0000 </r>
       <r>   -3.0278    0.0000 </r>
       <r>   -3.0226    0.0000 </r>
       <r>   -2.9347    0.0000 </r>
       <r>   -2.9339    0.0000 </r>
       <r>   -2.8566    0.0000 </r>
       <r>   -2.5697    0.0000 </r>
       <r>   -2.5355    0.0000 </r>
       <r>   -2.5148    0.0000 </r>
       <r>   -2.3090    0.0000 </r>
       <r>   -2.1120    0.0000 </r>
       <r>   -2.1120    0.0000 </r>
       <r>   -2.0574    0.0000 </r>
       <r>   -2.0465    0.0000 </r>
       <r>   -2.0351    0.0000 </r>
       <r>   -1.9249    0.0000 </r>
       <r>   -1.8850    0.0000 </r>
       <r>   -1.8061    0.0000 </r>
       <r>   -1.7175    0.0000 </r>
       <r>   -1.6849    0.0000 </r>
       <r>   -1.6392    0.0000 </r>
       <r>   -1.6353    0.0000 </r>
       <r>   -1.6189    0.0000 </r>
       <r>   -1.5525    0.0000 </r>
       <r>   -1.4107    0.0000 </r>
       <r>   -1.3383    0.0000 </r>
       <r>   -1.1985    0.0000 </r>
       <r>   -1.1594    0.0000 </r>
       <r>   -1.1251    0.0000 </r>
       <r>   -0.9795    0.0000 </r>
       <r>   -0.9695    0.0000 </r>
       <r>   -0.9552    0.0000 </r>
       <r>   -0.9264    0.0000 </r>
       <r>   -0.9206    0.0000 </r>
       <r>   -0.9018    0.0000 </r>
       <r>   -0.8163    0.0000 </r>
       <r>   -0.6558    0.0000 </r>
      </set>
     </set>
    </set>
   </array>
  </eigenvalues>
  <separator name="orbital magnetization" >
   <v name="MAGDIPOLOUT">      0.00000000      0.00000000      0.00000000</v>
  </separator>
  <dos>
   <i name="efermi">     -4.15098826 </i>
   <total>
    <array>
     <dimension dim="1">gridpoints</dimension>
     <dimension dim="2">spin</dimension>
     <field>energy</field>
     <field>total</field>
     <field>integrated</field>
     <set>
      <set comment="spin 1">
       <r>   -30.8937     0.0000     0.0000 </r>
       <r>   -30.7862     0.0000     0.0000 </r>
       <r>   -30.6788     0.0000     0.0000 </r>
       <r>   -30.5713     0.0000     0.0000 </r>
       <r>   -30.4639     0.0000     0.0000 </r>
       <r>   -30.3564     0.0000     0.0000 </r>
       <r>   -30.2489     0.0000     0.0000 </r>
       <r>   -30.1415     0.0000     0.0000 </r>
       <r>   -30.0340     0.0000     0.0000 </r>
       <r>   -29.9266     0.0000     0.0000 </r>
       <r>   -29.8191     0.0000     0.0000 </r>
       <r>   -29.7117     0.0000     0.0000 </r>
       <r>   -29.6042     0.0003     0.0000 </r>
       <r>   -29.4967     0.0049     0.0006 </r>
       <r>   -29.3893     0.0361     0.0044 </r>
       <r>   -29.2818     0.0465     0.0094 </r>
       <r>   -29.1744    -0.4357    -0.0374 </r>
       <r>   -29.0669    -0.5516    -0.0967 </r>
       <r>   -28.9594     4.2484     0.3599 </r>
       <r>   -28.8520     9.9296     1.4269 </r>
       <r>   -28.7445     5.9253     2.0636 </r>
       <r>   -28.6371    -0.0366     2.0597 </r>
       <r>   -28.5296    -0.6167     1.9934 </r>
       <r>   -28.4221     0.0041     1.9939 </r>
       <r>   -28.3147     0.0481     1.9990 </r>
       <r>   -28.2072     0.0083     1.9999 </r>
       <r>   -28.0998     0.0006     2.0000 </r>
       <r>   -27.9923     0.0000     2.0000 </r>
       <r>   -27.8848     0.0000     2.0000 </r>
       <r>   -27.7774     0.0000     2.0000 </r>
       <r>   -27.6699     0.0000     2.0000 </r>
       <r>   -27.5625     0.0000     2.0000 </r>
       <r>   -27.4550     0.0000     2.0000 </r>
       <r>   -27.3475     0.0000     2.0000 </r>
       <r>   -27.2401     0.0000     2.0000 </r>
       <r>   -27.1326     0.0000     2.0000 </r>
       <r>   -27.0252     0.0000     2.0000 </r>
       <r>   -26.9177     0.0000     2.0000 </r>
       <r>   -26.8102     0.0000     2.0000 </r>
       <r>   -26.7028     0.0000     2.0000 </r>
       <r>   -26.5953     0.0000     2.0000 </r>
       <r>   -26.4879     0.0000     2.0000 </r>
       <r>   -26.3804     0.0000     2.0000 </r>
       <r>   -26.2729     0.0000     2.0000 </r>
       <r>   -26.1655     0.0000     2.0000 </r>
       <r>   -26.0580     0.0000     2.0000 </r>
       <r>   -25.9506     0.0000     2.0000 </r>
       <r>   -25.8431     0.0000     2.0000 </r>
       <r>   -25.7356     0.0000     2.0000 </r>
       <r>   -25.6282     0.0000     2.0000 </r>
       <r>   -25.5207     0.0000     2.0000 </r>
       <r>   -25.4133     0.0000     2.0000 </r>
       <r>   -25.3058     0.0000     2.0000 </r>
       <r>   -25.1983     0.0000     2.0000 </r>
       <r>   -25.0909     0.0000     2.0000 </r>
       <r>   -24.9834     0.0000     2.0000 </r>
       <r>   -24.8760     0.0000     2.0000 </r>
       <r>   -24.7685     0.0000     2.0000 </r>
       <r>   -24.6610     0.0000     2.0000 </r>
       <r>   -24.5536     0.0000     2.0000 </r>
       <r>   -24.4461     0.0000     2.0000 </r>
       <r>   -24.3387     0.0000     2.0000 </r>
       <r>   -24.2312     0.0000     2.0000 </r>
       <r>   -24.1237     0.0000     2.0000 </r>
       <r>   -24.0163     0.0000     2.0000 </r>
       <r>   -23.9088     0.0000     2.0000 </r>
       <r>   -23.8014     0.0000     2.0000 </r>
       <r>   -23.6939     0.0000     2.0000 </r>
       <r>   -23.5864     0.0000     2.0000 </r>
       <r>   -23.4790     0.0000     2.0000 </r>
       <r>   -23.3715     0.0000     2.0000 </r>
       <r>   -23.2641     0.0000     2.0000 </r>
       <r>   -23.1566     0.0000     2.0000 </r>
       <r>   -23.0491     0.0000     2.0000 </r>
       <r>   -22.9417     0.0000     2.0000 </r>
       <r>   -22.8342     0.0000     2.0000 </r>
       <r>   -22.7268     0.0000     2.0000 </r>
       <r>   -22.6193     0.0000     2.0000 </r>
       <r>   -22.5118     0.0000     2.0000 </r>
       <r>   -22.4044     0.0000     2.0000 </r>
       <r>   -22.2969     0.0000     2.0000 </r>
       <r>   -22.1895     0.0000     2.0000 </r>
       <r>   -22.0820     0.0000     2.0000 </r>
       <r>   -21.9745     0.0000     2.0000 </r>
       <r>   -21.8671     0.0000     2.0000 </r>
       <r>   -21.7596     0.0000     2.0000 </r>
       <r>   -21.6522     0.0000     2.0000 </r>
       <r>   -21.5447     0.0000     2.0000 </r>
       <r>   -21.4372     0.0000     2.0000 </r>
       <r>   -21.3298     0.0000     2.0000 </r>
       <r>   -21.2223     0.0000     2.0000 </r>
       <r>   -21.1149     0.0000     2.0000 </r>
       <r>   -21.0074     0.0000     2.0000 </r>
       <r>   -20.8999     0.0000     2.0000 </r>
       <r>   -20.7925     0.0000     2.0000 </r>
       <r>   -20.6850     0.0000     2.0000 </r>
       <r>   -20.5776     0.0000     2.0000 </r>
       <r>   -20.4701     0.0000     2.0000 </r>
       <r>   -20.3626     0.0000     2.0000 </r>
       <r>   -20.2552     0.0000     2.0000 </r>
       <r>   -20.1477     0.0000     2.0000 </r>
       <r>   -20.0403     0.0000     2.0000 </r>
       <r>   -19.9328     0.0000     2.0000 </r>
       <r>   -19.8253     0.0000     2.0000 </r>
       <r>   -19.7179     0.0000     2.0000 </r>
       <r>   -19.6104     0.0000     2.0000 </r>
       <r>   -19.5030     0.0000     2.0000 </r>
       <r>   -19.3955     0.0000     2.0000 </r>
       <r>   -19.2880     0.0000     2.0000 </r>
       <r>   -19.1806     0.0000     2.0000 </r>
       <r>   -19.0731     0.0000     2.0000 </r>
       <r>   -18.9657     0.0000     2.0000 </r>
       <r>   -18.8582     0.0000     2.0000 </r>
       <r>   -18.7508     0.0000     2.0000 </r>
       <r>   -18.6433     0.0000     2.0000 </r>
       <r>   -18.5358     0.0000     2.0000 </r>
       <r>   -18.4284     0.0000     2.0000 </r>
       <r>   -18.3209     0.0000     2.0000 </r>
       <r>   -18.2135     0.0000     2.0000 </r>
       <r>   -18.1060     0.0000     2.0000 </r>
       <r>   -17.9985     0.0000     2.0000 </r>
       <r>   -17.8911     0.0000     2.0000 </r>
       <r>   -17.7836     0.0000     2.0000 </r>
       <r>   -17.6762     0.0000     2.0000 </r>
       <r>   -17.5687     0.0000     2.0000 </r>
       <r>   -17.4612     0.0000     2.0000 </r>
       <r>   -17.3538     0.0000     2.0000 </r>
       <r>   -17.2463     0.0000     2.0000 </r>
       <r>   -17.1389     0.0000     2.0000 </r>
       <r>   -17.0314     0.0000     2.0000 </r>
       <r>   -16.9239     0.0000     2.0000 </r>
       <r>   -16.8165     0.0000     2.0000 </r>
       <r>   -16.7090     0.0000     2.0000 </r>
       <r>   -16.6016     0.0000     2.0000 </r>
       <r>   -16.4941     0.0000     2.0000 </r>
       <r>   -16.3866     0.0000     2.0000 </r>
       <r>   -16.2792     0.0000     2.0000 </r>
       <r>   -16.1717     0.0000     2.0000 </r>
       <r>   -16.0643     0.0000     2.0000 </r>
       <r>   -15.9568     0.0000     2.0000 </r>
       <r>   -15.8493     0.0000     2.0000 </r>
       <r>   -15.7419     0.0000     2.0000 </r>
       <r>   -15.6344     0.0000     2.0000 </r>
       <r>   -15.5270     0.0000     2.0000 </r>
       <r>   -15.4195     0.0000     2.0000 </r>
       <r>   -15.3120     0.0000     2.0000 </r>
       <r>   -15.2046     0.0000     2.0000 </r>
       <r>   -15.0971     0.0000     2.0000 </r>
       <r>   -14.9897     0.0000     2.0000 </r>
       <r>   -14.8822     0.0000     2.0000 </r>
       <r>   -14.7747     0.0000     2.0000 </r>
       <r>   -14.6673     0.0000     2.0000 </r>
       <r>   -14.5598     0.0000     2.0000 </r>
       <r>   -14.4524     0.0000     2.0000 </r>
       <r>   -14.3449     0.0000     2.0000 </r>
       <r>   -14.2374     0.0001     2.0000 </r>
       <r>   -14.1300     0.0020     2.0002 </r>
       <r>   -14.0225     0.0205     2.0024 </r>
       <r>   -13.9151     0.0642     2.0093 </r>
       <r>   -13.8076    -0.1863     1.9893 </r>
       <r>   -13.7001    -0.8157     1.9016 </r>
       <r>   -13.5927     1.9367     2.1098 </r>
       <r>   -13.4852     8.7922     3.0546 </r>
       <r>   -13.3778     8.2618     3.9424 </r>
       <r>   -13.2703     1.3927     4.0920 </r>
       <r>   -13.1628    -0.8072     4.0053 </r>
       <r>   -13.0554    -0.1308     3.9912 </r>
       <r>   -12.9479     0.0628     3.9980 </r>
       <r>   -12.8405     0.0171     3.9998 </r>
       <r>   -12.7330     0.0015     4.0000 </r>
       <r>   -12.6255     0.0001     4.0000 </r>
       <r>   -12.5181     0.0000     4.0000 </r>
       <r>   -12.4106     0.0000     4.0000 </r>
       <r>   -12.3032     0.0000     4.0000 </r>
       <r>   -12.1957     0.0000     4.0000 </r>
       <r>   -12.0882     0.0000     4.0000 </r>
       <r>   -11.9808     0.0003     4.0000 </r>
       <r>   -11.8733     0.0066     4.0007 </r>
       <r>   -11.7659     0.0559     4.0068 </r>
       <r>   -11.6584     0.1162     4.0192 </r>
       <r>   -11.5509    -0.6120     3.9535 </r>
       <r>   -11.4435    -1.4351     3.7993 </r>
       <r>   -11.3360     6.1081     4.4556 </r>
       <r>   -11.2286    18.8721     6.4836 </r>
       <r>   -11.1211    14.2690     8.0170 </r>
       <r>   -11.0136     1.2669     8.1531 </r>
       <r>   -10.9062    -1.4482     7.9975 </r>
       <r>   -10.7987    -0.1160     7.9850 </r>
       <r>   -10.6913     0.1123     7.9971 </r>
       <r>   -10.5838     0.0248     7.9998 </r>
       <r>   -10.4763     0.0021     8.0000 </r>
       <r>   -10.3689     0.0031     8.0003 </r>
       <r>   -10.2614     0.0270     8.0032 </r>
       <r>   -10.1540     0.0614     8.0098 </r>
       <r>   -10.0465    -0.2917     7.9785 </r>
       <r>    -9.9390    -0.7605     7.8968 </r>
       <r>    -9.8316     2.9308     8.2117 </r>
       <r>    -9.7241     9.4699     9.2294 </r>
       <r>    -9.6167     7.2613    10.0097 </r>
       <r>    -9.5092     0.6401    10.0784 </r>
       <r>    -9.4017    -0.7434     9.9986 </r>
       <r>    -9.2943    -0.0574     9.9924 </r>
       <r>    -9.1868     0.0574     9.9986 </r>
       <r>    -9.0794     0.0125     9.9999 </r>
       <r>    -8.9719     0.0010    10.0000 </r>
       <r>    -8.8644     0.0000    10.0000 </r>
       <r>    -8.7570     0.0000    10.0000 </r>
       <r>    -8.6495     0.0000    10.0000 </r>
       <r>    -8.5421     0.0000    10.0000 </r>
       <r>    -8.4346     0.0000    10.0000 </r>
       <r>    -8.3271     0.0000    10.0000 </r>
       <r>    -8.2197     0.0000    10.0000 </r>
       <r>    -8.1122     0.0000    10.0000 </r>
       <r>    -8.0048     0.0000    10.0000 </r>
       <r>    -7.8973     0.0000    10.0000 </r>
       <r>    -7.7898     0.0000    10.0000 </r>
       <r>    -7.6824     0.0000    10.0000 </r>
       <r>    -7.5749     0.0000    10.0000 </r>
       <r>    -7.4675     0.0000    10.0000 </r>
       <r>    -7.3600     0.0002    10.0000 </r>
       <r>    -7.2526     0.0042    10.0005 </r>
       <r>    -7.1451     0.0331    10.0040 </r>
       <r>    -7.0376     0.0528    10.0097 </r>
       <r>    -6.9302    -0.3888     9.9679 </r>
       <r>    -6.8227    -0.6353     9.8997 </r>
       <r>    -6.7153     3.8410    10.3124 </r>
       <r>    -6.6078     9.9537    11.3821 </r>
       <r>    -6.5003     6.4479    12.0749 </r>
       <r>    -6.3929    -1.3842    11.9262 </r>
       <r>    -6.2854    -1.4848    11.7666 </r>
       <r>    -6.1780    15.4274    13.4245 </r>
       <r>    -6.0705    28.7346    16.5123 </r>
       <r>    -5.9630    13.5254    17.9657 </r>
       <r>    -5.8556    12.4233    19.3007 </r>
       <r>    -5.7481    46.9827    24.3495 </r>
       <r>    -5.6407   115.0774    36.7157 </r>
       <r>    -5.5332   233.0926    61.7638 </r>
       <r>    -5.4257   307.3047    94.7867 </r>
       <r>    -5.3183   253.4967   122.0274 </r>
       <r>    -5.2108   200.2443   143.5456 </r>
       <r>    -5.1034   261.3877   171.6343 </r>
       <r>    -4.9959   356.2502   209.9169 </r>
       <r>    -4.8884   346.3555   247.1361 </r>
       <r>    -4.7810   285.6568   277.8328 </r>
       <r>    -4.6735   338.4552   314.2031 </r>
       <r>    -4.5661   427.5851   360.1513 </r>
       <r>    -4.4586   429.2480   406.2782 </r>
       <r>    -4.3511   475.1015   457.3326 </r>
       <r>    -4.2437   563.4734   517.8833 </r>
       <r>    -4.1362   434.5228   564.5770 </r>
       <r>    -4.0288   146.0242   580.2688 </r>
       <r>    -3.9213     6.6226   580.9804 </r>
       <r>    -3.8138    25.2090   583.6894 </r>
       <r>    -3.7064    32.9122   587.2261 </r>
       <r>    -3.5989    10.6074   588.3660 </r>
       <r>    -3.4915    16.2652   590.1138 </r>
       <r>    -3.3840    25.1696   592.8186 </r>
       <r>    -3.2765     8.4138   593.7227 </r>
       <r>    -3.1691     3.5627   594.1055 </r>
       <r>    -3.0616    37.8100   598.1686 </r>
       <r>    -2.9542    62.2182   604.8546 </r>
       <r>    -2.8467    39.7992   609.1314 </r>
       <r>    -2.7392     7.9417   609.9848 </r>
       <r>    -2.6318     6.2396   610.6553 </r>
       <r>    -2.5243    25.4454   613.3897 </r>
       <r>    -2.4169    23.9463   615.9629 </r>
       <r>    -2.3094     8.6725   616.8949 </r>
       <r>    -2.2019    10.6655   618.0410 </r>
       <r>    -2.0945    35.0161   621.8038 </r>
       <r>    -1.9870    49.2684   627.0982 </r>
       <r>    -1.8796    34.9170   630.8504 </r>
       <r>    -1.7721    28.8228   633.9477 </r>
       <r>    -1.6646    45.7306   638.8618 </r>
       <r>    -1.5572    48.4424   644.0675 </r>
       <r>    -1.4497    26.2149   646.8845 </r>
       <r>    -1.3423    15.9481   648.5983 </r>
       <r>    -1.2348    20.2292   650.7721 </r>
       <r>    -1.1273    26.0163   653.5678 </r>
       <r>    -1.0199    38.6079   657.7166 </r>
       <r>    -0.9124    58.9112   664.0472 </r>
       <r>    -0.8050    46.9812   669.0958 </r>
       <r>    -0.6975    17.1462   670.9383 </r>
       <r>    -0.5900     7.2540   671.7178 </r>
       <r>    -0.4826     3.1577   672.0571 </r>
       <r>    -0.3751    -0.3401   672.0206 </r>
       <r>    -0.2677    -0.3024   671.9881 </r>
       <r>    -0.1602     0.0678   671.9954 </r>
       <r>    -0.0527     0.0377   671.9994 </r>
       <r>     0.0547     0.0049   672.0000 </r>
       <r>     0.1622     0.0003   672.0000 </r>
       <r>     0.2696     0.0000   672.0000 </r>
       <r>     0.3771     0.0000   672.0000 </r>
       <r>     0.4846     0.0000   672.0000 </r>
       <r>     0.5920     0.0000   672.0000 </r>
       <r>     0.6995     0.0000   672.0000 </r>
       <r>     0.8069     0.0000   672.0000 </r>
       <r>     0.9144     0.0000   672.0000 </r>
       <r>     1.0219     0.0000   672.0000 </r>
       <r>     1.1293     0.0000   672.0000 </r>
       <r>     1.2368     0.0000   672.0000 </r>
       <r>     1.3442     0.0000   672.0000 </r>
      </set>
     </set>
    </array>
   </total>
  </dos>
 </calculation>
 <structure name="finalpos" >
  <crystal>
   <varray name="basis" >
    <v>      30.00000000       0.00000000       0.00000000 </v>
    <v>       0.00000000      30.00000000       0.00000000 </v>
    <v>       0.00000000       0.00000000      30.00000000 </v>
   </varray>
   <i name="volume">  27000.00000000 </i>
   <varray name="rec_basis" >
    <v>       0.03333333       0.00000000       0.00000000 </v>
    <v>       0.00000000       0.03333333       0.00000000 </v>
    <v>       0.00000000       0.00000000       0.03333333 </v>
   </varray>
  </crystal>
  <varray name="positions" >
   <v>       0.44576020       0.32826710       0.41691983 </v>
   <v>       0.67173288       0.55423978       0.41691983 </v>
   <v>       0.55423980       0.32826710       0.41691983 </v>
   <v>       0.32826712       0.55423978       0.41691983 </v>
   <v>       0.50000000       0.38250690       0.34021317 </v>
   <v>       0.50000000       0.38250690       0.65978680 </v>
   <v>       0.50000000       0.27609440       0.50000000 </v>
   <v>       0.27609443       0.49999998       0.50000000 </v>
   <v>       0.72390557       0.49999998       0.50000000 </v>
   <v>       0.50000000       0.72390555       0.50000000 </v>
   <v>       0.61195280       0.38804720       0.34167483 </v>
   <v>       0.61195280       0.38804720       0.65832513 </v>
   <v>       0.38804722       0.61195278       0.34167483 </v>
   <v>       0.38804722       0.61195278       0.65832513 </v>
   <v>       0.38804720       0.38804720       0.34167483 </v>
   <v>       0.38804720       0.38804720       0.65832513 </v>
   <v>       0.61195278       0.61195278       0.34167483 </v>
   <v>       0.61195278       0.61195278       0.65832513 </v>
   <v>       0.44576020       0.32826710       0.58308023 </v>
   <v>       0.67173288       0.55423978       0.58308023 </v>
   <v>       0.55791699       0.44208301       0.41809300 </v>
   <v>       0.32826705       0.44576024       0.41691983 </v>
   <v>       0.55423973       0.67173293       0.41691983 </v>
   <v>       0.55423980       0.32826710       0.58308023 </v>
   <v>       0.32826712       0.55423978       0.58308023 </v>
   <v>       0.67173295       0.44576024       0.41691983 </v>
   <v>       0.44576027       0.67173293       0.41691983 </v>
   <v>       0.44208301       0.44208301       0.41809300 </v>
   <v>       0.50000000       0.38416601       0.50000000 </v>
   <v>       0.61749315       0.50000005       0.34021317 </v>
   <v>       0.61749315       0.50000005       0.65978680 </v>
   <v>       0.38250685       0.50000005       0.34021317 </v>
   <v>       0.38250685       0.50000005       0.65978680 </v>
   <v>       0.38317830       0.38317830       0.50000000 </v>
   <v>       0.61682172       0.61682172       0.50000000 </v>
   <v>       0.61682170       0.38317830       0.50000000 </v>
   <v>       0.38317828       0.61682172       0.50000000 </v>
   <v>       0.50000000       0.50000000       0.33478917 </v>
   <v>       0.50000000       0.50000000       0.66521087 </v>
   <v>       0.32826705       0.44576024       0.58308023 </v>
   <v>       0.55423973       0.67173293       0.58308023 </v>
   <v>       0.55791699       0.44208301       0.58190703 </v>
   <v>       0.44208298       0.55791702       0.41809300 </v>
   <v>       0.44208301       0.44208301       0.58190703 </v>
   <v>       0.67173295       0.44576024       0.58308023 </v>
   <v>       0.44576027       0.67173293       0.58308023 </v>
   <v>       0.55791702       0.55791702       0.41809300 </v>
   <v>       0.38416599       0.50000002       0.50000000 </v>
   <v>       0.61583401       0.50000002       0.50000000 </v>
   <v>       0.50000000       0.61749319       0.34021317 </v>
   <v>       0.50000000       0.61749319       0.65978680 </v>
   <v>       0.50000000       0.50000000       0.50000000 </v>
   <v>       0.44208298       0.55791702       0.58190703 </v>
   <v>       0.55791702       0.55791702       0.58190703 </v>
   <v>       0.50000000       0.61583404       0.50000000 </v>
   <v>       0.52622037       0.28195203       0.63953513 </v>
   <v>       0.53000937       0.25044283       0.65969880 </v>
  </varray>
  <varray name="selective"  type="logical" >
   <v type="logical" >  F  F  F </v>
   <v type="logical" >  F  F  F </v>
   <v type="logical" >  F  F  F </v>
   <v type="logical" >  F  F  F </v>
   <v type="logical" >  F  F  F </v>
   <v type="logical" >  F  F  F </v>
   <v type="logical" >  F  F  F </v>
   <v type="logical" >  F  F  F </v>
   <v type="logical" >  F  F  F </v>
   <v type="logical" >  F  F  F </v>
   <v type="logical" >  F  F  F </v>
   <v type="logical" >  F  F  F </v>
   <v type="logical" >  F  F  F </v>
   <v type="logical" >  F  F  F </v>
   <v type="logical" >  F  F  F </v>
   <v type="logical" >  F  F  F </v>
   <v type="logical" >  F  F  F </v>
   <v type="logical" >  F  F  F </v>
   <v type="logical" >  F  F  F </v>
   <v type="logical" >  F  F  F </v>
   <v type="logical" >  F  F  F </v>
   <v type="logical" >  F  F  F </v>
   <v type="logical" >  F  F  F </v>
   <v type="logical" >  F  F  F </v>
   <v type="logical" >  F  F  F </v>
   <v type="logical" >  F  F  F </v>
   <v type="logical" >  F  F  F </v>
   <v type="logical" >  F  F  F </v>
   <v type="logical" >  F  F  F </v>
   <v type="logical" >  F  F  F </v>
   <v type="logical" >  F  F  F </v>
   <v type="logical" >  F  F  F </v>
   <v type="logical" >  F  F  F </v>
   <v type="logical" >  F  F  F </v>
   <v type="logical" >  F  F  F </v>
   <v type="logical" >  F  F  F </v>
   <v type="logical" >  F  F  F </v>
   <v type="logical" >  F  F  F </v>
   <v type="logical" >  F  F  F </v>
   <v type="logical" >  F  F  F </v>
   <v type="logical" >  F  F  F </v>
   <v type="logical" >  F  F  F </v>
   <v type="logical" >  F  F  F </v>
   <v type="logical" >  F  F  F </v>
   <v type="logical" >  F  F  F </v>
   <v type="logical" >  F  F  F </v>
   <v type="logical" >  F  F  F </v>
   <v type="logical" >  F  F  F </v>
   <v type="logical" >  F  F  F </v>
   <v type="logical" >  F  F  F </v>
   <v type="logical" >  F  F  F </v>
   <v type="logical" >  F  F  F </v>
   <v type="logical" >  F  F  F </v>
   <v type="logical" >  F  F  F </v>
   <v type="logical" >  F  F  F </v>
   <v type="logical" >  F  F  F </v>
   <v type="logical" >  F  F  F </v>
  </varray>
  <nose>
   <v>      -3.00000000       0.00000000       0.00010000       0.00010000 </v>
  </nose>
 </structure>
</modeling>
