   57   57    1    1
  0.4736842E+03  0.3000000E-08  0.3000000E-08  0.3000000E-08  0.5000000E-15
  1.000000000000000E-004
  CAR 
 6_Pd100_top_free_z(O)                   
    560      1    336
 
  0.0000000E+00  0.0000000E+00  0.0000000E+00  0.1000000E+01
    1      -28.155858   1.000000
    2      -13.310862   1.000000
    3      -11.104650   1.000000
    4      -10.894845   1.000000
    5      -10.462969   1.000000
    6       -6.661859   1.000000
    7       -6.292296   1.000000
    8       -6.231812   1.000000
    9       -6.140713   1.000000
   10       -6.138504   1.000000
   11       -6.098165   1.000000
   12       -5.840246   1.000000
   13       -5.833122   1.000000
   14       -5.815275   1.000000
   15       -5.769210   1.000000
   16       -5.723322   1.000000
   17       -5.705779   1.000000
   18       -5.700732   1.000000
   19       -5.695109   1.000000
   20       -5.674100   1.000000
   21       -5.654893   1.000000
   22       -5.649481   1.000000
   23       -5.633137   1.000000
   24       -5.624332   1.000000
   25       -5.610452   1.000000
   26       -5.595024   1.000000
   27       -5.588997   1.000000
   28       -5.564490   1.000000
   29       -5.562901   1.000000
   30       -5.560614   1.000000
   31       -5.557158   1.000000
   32       -5.541647   1.000000
   33       -5.532379   1.000000
   34       -5.530277   1.000000
   35       -5.527909   1.000000
   36       -5.525238   1.000000
   37       -5.521452   1.000000
   38       -5.517737   1.000000
   39       -5.506734   1.000000
   40       -5.497989   1.000000
   41       -5.487005   1.000000
   42       -5.484988   1.000000
   43       -5.481363   1.000000
   44       -5.479413   1.000000
   45       -5.477081   1.000000
   46       -5.463847   1.000000
   47       -5.460872   1.000000
   48       -5.447214   1.000000
   49       -5.442593   1.000000
   50       -5.441688   1.000000
   51       -5.438540   1.000000
   52       -5.429903   1.000000
   53       -5.420371   1.000000
   54       -5.417135   1.000000
   55       -5.414083   1.000000
   56       -5.410010   1.000000
   57       -5.382796   1.000000
   58       -5.378428   1.000000
   59       -5.359386   1.000000
   60       -5.347076   1.000000
   61       -5.339405   1.000000
   62       -5.333657   1.000000
   63       -5.332654   1.000000
   64       -5.323065   1.000000
   65       -5.316773   1.000000
   66       -5.311434   1.000000
   67       -5.310588   1.000000
   68       -5.300143   1.000000
   69       -5.281050   1.000000
   70       -5.269664   1.000000
   71       -5.234813   1.000000
   72       -5.229291   1.000000
   73       -5.217988   1.000000
   74       -5.208943   1.000000
   75       -5.204980   1.000000
   76       -5.201258   1.000000
   77       -5.193930   1.000000
   78       -5.184305   1.000000
   79       -5.180087   1.000000
   80       -5.176332   1.000000
   81       -5.174702   1.000000
   82       -5.167549   1.000000
   83       -5.165505   1.000000
   84       -5.145705   1.000000
   85       -5.143401   1.000000
   86       -5.134121   1.000000
   87       -5.121301   1.000000
   88       -5.117132   1.000000
   89       -5.115779   1.000000
   90       -5.094076   1.000000
   91       -5.083122   1.000000
   92       -5.078736   1.000000
   93       -5.074392   1.000000
   94       -5.070153   1.000000
   95       -5.063668   1.000000
   96       -5.061340   1.000000
   97       -5.054745   1.000000
   98       -5.052252   1.000000
   99       -5.046465   1.000000
  100       -5.042422   1.000000
  101       -5.041322   1.000000
  102       -5.030907   1.000000
  103       -5.028620   1.000000
  104       -5.018963   1.000000
  105       -5.015344   1.000000
  106       -5.012363   1.000000
  107       -5.009837   1.000000
  108       -5.008238   1.000000
  109       -4.997557   1.000000
  110       -4.994751   1.000000
  111       -4.990886   1.000000
  112       -4.986903   1.000000
  113       -4.983966   1.000000
  114       -4.975610   1.000000
  115       -4.972327   0.999999
  116       -4.966195   0.999999
  117       -4.962552   0.999999
  118       -4.949994   0.999999
  119       -4.946137   0.999999
  120       -4.944357   0.999999
  121       -4.932939   0.999998
  122       -4.923580   0.999997
  123       -4.921821   0.999997
  124       -4.916234   0.999996
  125       -4.913859   0.999996
  126       -4.910514   0.999995
  127       -4.898723   0.999993
  128       -4.886774   0.999990
  129       -4.872812   0.999985
  130       -4.864409   0.999981
  131       -4.859112   0.999978
  132       -4.854240   0.999974
  133       -4.850794   0.999972
  134       -4.845368   0.999967
  135       -4.842060   0.999963
  136       -4.840996   0.999962
  137       -4.819578   0.999932
  138       -4.814193   0.999921
  139       -4.807188   0.999905
  140       -4.803527   0.999895
  141       -4.792014   0.999859
  142       -4.787892   0.999844
  143       -4.778975   0.999805
  144       -4.776160   0.999791
  145       -4.770049   0.999758
  146       -4.765600   0.999731
  147       -4.751421   0.999628
  148       -4.740189   0.999523
  149       -4.732080   0.999432
  150       -4.724179   0.999331
  151       -4.720219   0.999275
  152       -4.713527   0.999171
  153       -4.710021   0.999112
  154       -4.703287   0.998990
  155       -4.699313   0.998912
  156       -4.695293   0.998829
  157       -4.689206   0.998693
  158       -4.685434   0.998604
  159       -4.684107   0.998571
  160       -4.677060   0.998390
  161       -4.673806   0.998301
  162       -4.668114   0.998138
  163       -4.664247   0.998022
  164       -4.662338   0.997963
  165       -4.659835   0.997884
  166       -4.658991   0.997857
  167       -4.657293   0.997802
  168       -4.652496   0.997643
  169       -4.651136   0.997597
  170       -4.644400   0.997363
  171       -4.635147   0.997027
  172       -4.626316   0.996697
  173       -4.622116   0.996538
  174       -4.614799   0.996265
  175       -4.611700   0.996151
  176       -4.608491   0.996036
  177       -4.606170   0.995953
  178       -4.604627   0.995900
  179       -4.600661   0.995766
  180       -4.595073   0.995589
  181       -4.588802   0.995411
  182       -4.585459   0.995328
  183       -4.580325   0.995219
  184       -4.576383   0.995152
  185       -4.575655   0.995142
  186       -4.568233   0.995072
  187       -4.567520   0.995069
  188       -4.566203   0.995066
  189       -4.560733   0.995080
  190       -4.559460   0.995091
  191       -4.554515   0.995159
  192       -4.536659   0.995839
  193       -4.522047   0.997031
  194       -4.520286   0.997221
  195       -4.517147   0.997585
  196       -4.516945   0.997610
  197       -4.506379   0.999112
  198       -4.504841   0.999367
  199       -4.500658   1.000108
  200       -4.494546   1.001324
  201       -4.491341   1.002026
  202       -4.487479   1.002932
  203       -4.483302   1.003988
  204       -4.473983   1.006630
  205       -4.471525   1.007393
  206       -4.464942   1.009571
  207       -4.460455   1.011166
  208       -4.458393   1.011928
  209       -4.455076   1.013192
  210       -4.446925   1.016483
  211       -4.441723   1.018710
  212       -4.436958   1.020826
  213       -4.434334   1.022019
  214       -4.432712   1.022765
  215       -4.424858   1.026452
  216       -4.420741   1.028421
  217       -4.419442   1.029046
  218       -4.416411   1.030505
  219       -4.410178   1.033500
  220       -4.403418   1.036698
  221       -4.397319   1.039488
  222       -4.382906   1.045408
  223       -4.378220   1.047034
  224       -4.375026   1.048031
  225       -4.371881   1.048915
  226       -4.365364   1.050395
  227       -4.359220   1.051291
  228       -4.349047   1.051500
  229       -4.348073   1.051426
  230       -4.346423   1.051260
  231       -4.344102   1.050938
  232       -4.343090   1.050763
  233       -4.338712   1.049764
  234       -4.337970   1.049554
  235       -4.336522   1.049109
  236       -4.334783   1.048511
  237       -4.333478   1.048016
  238       -4.332314   1.047541
  239       -4.328154   1.045570
  240       -4.321009   1.041142
  241       -4.318674   1.039393
  242       -4.315787   1.037013
  243       -4.304320   1.025062
  244       -4.300987   1.020798
  245       -4.299067   1.018173
  246       -4.295147   1.012420
  247       -4.294585   1.011551
  248       -4.291804   1.007089
  249       -4.290969   1.005695
  250       -4.281117   0.987335
  251       -4.278720   0.982319
  252       -4.274339   0.972595
  253       -4.272255   0.967710
  254       -4.271778   0.966571
  255       -4.268479   0.958437
  256       -4.264871   0.949059
  257       -4.263463   0.945262
  258       -4.261046   0.938566
  259       -4.258410   0.931005
  260       -4.256893   0.926531
  261       -4.253955   0.917615
  262       -4.252293   0.912423
  263       -4.250385   0.906332
  264       -4.248591   0.900480
  265       -4.248198   0.899180
  266       -4.239227   0.867966
  267       -4.235443   0.853914
  268       -4.234947   0.852032
  269       -4.232607   0.843046
  270       -4.230994   0.836736
  271       -4.229911   0.832452
  272       -4.221967   0.799821
  273       -4.216617   0.776704
  274       -4.206508   0.730752
  275       -4.196843   0.684379
  276       -4.191477   0.657764
  277       -4.188726   0.643913
  278       -4.185082   0.625376
  279       -4.184248   0.621109
  280       -4.182724   0.613280
  281       -4.169222   0.542840
  282       -4.155354   0.469561
  283       -4.148498   0.433488
  284       -4.142210   0.400711
  285       -4.139936   0.388963
  286       -4.137620   0.377067
  287       -4.127487   0.325997
  288       -4.125161   0.314538
  289       -4.090880   0.161884
  290       -3.976148  -0.051219
  291       -3.874875  -0.016305
  292       -3.835890  -0.003214
  293       -3.824970  -0.000765
  294       -3.635813   0.001373
  295       -3.524441   0.000122
  296       -3.504814   0.000073
  297       -3.360440   0.000001
  298       -3.083611   0.000000
  299       -3.079185   0.000000
  300       -3.062307   0.000000
  301       -3.047749   0.000000
  302       -3.029073   0.000000
  303       -2.962123   0.000000
  304       -2.950346   0.000000
  305       -2.676130   0.000000
  306       -2.603455   0.000000
  307       -2.531311   0.000000
  308       -2.464141   0.000000
  309       -2.305229   0.000000
  310       -2.128619   0.000000
  311       -2.123419   0.000000
  312       -2.098352   0.000000
  313       -2.047191   0.000000
  314       -1.976294   0.000000
  315       -1.949013   0.000000
  316       -1.893490   0.000000
  317       -1.786149   0.000000
  318       -1.742467   0.000000
  319       -1.680644   0.000000
  320       -1.653996   0.000000
  321       -1.604911   0.000000
  322       -1.565327   0.000000
  323       -1.480299   0.000000
  324       -1.362943   0.000000
  325       -1.250856   0.000000
  326       -1.208334   0.000000
  327       -1.109690   0.000000
  328       -1.010833   0.000000
  329       -0.992042   0.000000
  330       -0.981109   0.000000
  331       -0.961645   0.000000
  332       -0.937997   0.000000
  333       -0.928169   0.000000
  334       -0.904397   0.000000
  335       -0.872196   0.000000
  336       -0.626859   0.000000
