 vasp.5.4.4.18Apr17-6-g9f103f2a35 (build Sep 03 2018 23:53:05) complex          
  
 executed on             LinuxIFC date 2021.11.30  22:45:19
 running on    1 total cores
 distrk:  each k-point on    1 cores,    1 groups
 distr:  one band on NCORES_PER_BAND=   1 cores,    1 groups


--------------------------------------------------------------------------------------------------------


 INCAR:
 POTCAR:    PAW_PBE Pd 04Jan2005                  
 POTCAR:    PAW_PBE C 08Apr2002                   
 POTCAR:    PAW_PBE O 08Apr2002                   
 POTCAR:    PAW_PBE Pd 04Jan2005                  
   VRHFIN =Pd : s1 d9                                                           
   LEXCH  = PE                                                                  
   EATOM  =   809.7530 eV,   59.5152 Ry                                         
                                                                                
   TITEL  = PAW_PBE Pd 04Jan2005                                                
   LULTRA =        F    use ultrasoft PP ?                                      
   IUNSCR =        1    unscreen: 0-lin 1-nonlin 2-no                           
   RPACOR =    2.000    partial core radius                                     
   POMASS =  106.420; ZVAL   =   10.000    mass and valenz                      
   RCORE  =    2.600    outmost cutoff radius                                   
   RWIGS  =    2.710; RWIGS  =    1.434    wigner-seitz radius (au A)           
   ENMAX  =  250.925; ENMIN  =  188.194 eV                                      
   ICORE  =        3    local potential                                         
   LCOR   =        T    correct aug charges                                     
   LPAW   =        T    paw PP                                                  
   EAUG   =  416.230                                                            
   DEXC   =    0.000                                                            
   RMAX   =    2.653    core radius for proj-oper                               
   RAUG   =    1.300    factor for augmentation sphere                          
   RDEP   =    2.734    radius for radial grids                                 
   RDEPT  =    2.103    core radius for aug-charge                              
                                                                                
   Atomic configuration                                                         
   12 entries                                                                   
     n  l   j            E        occ.                                          
     1  0  0.50    -24164.6631   2.0000                                         
     2  0  0.50     -3530.9218   2.0000                                         
     2  1  1.50     -3165.6822   6.0000                                         
     3  0  0.50      -639.4577   2.0000                                         
     3  1  1.50      -519.4532   6.0000                                         
     3  2  2.50      -328.9757  10.0000                                         
     4  0  0.50       -88.7014   2.0000                                         
     4  1  1.50       -54.4540   6.0000                                         
     4  2  2.50        -6.6878   9.0000                                         
     5  0  0.50        -4.3543   1.0000                                         
     5  1  0.50        -1.3606   0.0000                                         
     4  3  2.50        -1.3606   0.0000                                         
   Description                                                                  
     l       E           TYP  RCUT    TYP  RCUT                                 
     2     -6.6878251     23  2.400                                             
     2     -8.0484077     23  2.400                                             
     0     -4.3542939     23  2.400                                             
     0      4.3406793     23  2.400                                             
     1     -4.0817478     23  2.600                                             
     1     15.8380318     23  2.600                                             
     3     -4.0817478     23  2.400                                             
  local pseudopotential read in
  partial core-charges read in
  partial kinetic energy density read in
  atomic valenz-charges read in
  non local Contribution for L=           2  read in
    real space projection operators read in
  non local Contribution for L=           2  read in
    real space projection operators read in
  non local Contribution for L=           0  read in
    real space projection operators read in
  non local Contribution for L=           0  read in
    real space projection operators read in
  non local Contribution for L=           1  read in
    real space projection operators read in
  non local Contribution for L=           1  read in
    real space projection operators read in
    PAW grid and wavefunctions read in
 
   number of l-projection  operators is LMAX  =           6
   number of lm-projection operators is LMMAX =          18
 
 POTCAR:    PAW_PBE C 08Apr2002                   
   VRHFIN =C: s2p2                                                              
   LEXCH  = PE                                                                  
   EATOM  =   147.1560 eV,   10.8157 Ry                                         
                                                                                
   TITEL  = PAW_PBE C 08Apr2002                                                 
   LULTRA =        F    use ultrasoft PP ?                                      
   IUNSCR =        1    unscreen: 0-lin 1-nonlin 2-no                           
   RPACOR =    1.200    partial core radius                                     
   POMASS =   12.011; ZVAL   =    4.000    mass and valenz                      
   RCORE  =    1.500    outmost cutoff radius                                   
   RWIGS  =    1.630; RWIGS  =    0.863    wigner-seitz radius (au A)           
   ENMAX  =  400.000; ENMIN  =  300.000 eV                                      
   ICORE  =        2    local potential                                         
   LCOR   =        T    correct aug charges                                     
   LPAW   =        T    paw PP                                                  
   EAUG   =  644.873                                                            
   DEXC   =    0.000                                                            
   RMAX   =    1.529    core radius for proj-oper                               
   RAUG   =    1.300    factor for augmentation sphere                          
   RDEP   =    1.501    radius for radial grids                                 
   RDEPT  =    1.300    core radius for aug-charge                              
                                                                                
   Atomic configuration                                                         
    4 entries                                                                   
     n  l   j            E        occ.                                          
     1  0  0.50      -273.3789   2.0000                                         
     2  0  0.50       -13.7508   2.0000                                         
     2  1  0.50        -5.2854   2.0000                                         
     3  2  1.50        -5.4423   0.0000                                         
   Description                                                                  
     l       E           TYP  RCUT    TYP  RCUT                                 
     0    -13.7508458     23  1.200                                             
     0     -8.2022199     23  1.200                                             
     1     -5.2854383     23  1.500                                             
     1     34.0145650     23  1.500                                             
     2     -5.4423304      7  1.500                                             
  local pseudopotential read in
  partial core-charges read in
  partial kinetic energy density read in
  atomic valenz-charges read in
  non local Contribution for L=           0  read in
    real space projection operators read in
  non local Contribution for L=           0  read in
    real space projection operators read in
  non local Contribution for L=           1  read in
    real space projection operators read in
  non local Contribution for L=           1  read in
    real space projection operators read in
    PAW grid and wavefunctions read in
 
   number of l-projection  operators is LMAX  =           4
   number of lm-projection operators is LMMAX =           8
 
 POTCAR:    PAW_PBE O 08Apr2002                   
   VRHFIN =O: s2p4                                                              
   LEXCH  = PE                                                                  
   EATOM  =   432.3788 eV,   31.7789 Ry                                         
                                                                                
   TITEL  = PAW_PBE O 08Apr2002                                                 
   LULTRA =        F    use ultrasoft PP ?                                      
   IUNSCR =        1    unscreen: 0-lin 1-nonlin 2-no                           
   RPACOR =    1.200    partial core radius                                     
   POMASS =   16.000; ZVAL   =    6.000    mass and valenz                      
   RCORE  =    1.520    outmost cutoff radius                                   
   RWIGS  =    1.550; RWIGS  =    0.820    wigner-seitz radius (au A)           
   ENMAX  =  400.000; ENMIN  =  300.000 eV                                      
   ICORE  =        2    local potential                                         
   LCOR   =        T    correct aug charges                                     
   LPAW   =        T    paw PP                                                  
   EAUG   =  605.392                                                            
   DEXC   =    0.000                                                            
   RMAX   =    1.553    core radius for proj-oper                               
   RAUG   =    1.300    factor for augmentation sphere                          
   RDEP   =    1.550    radius for radial grids                                 
   RDEPT  =    1.329    core radius for aug-charge                              
                                                                                
   Atomic configuration                                                         
    4 entries                                                                   
     n  l   j            E        occ.                                          
     1  0  0.50      -514.6923   2.0000                                         
     2  0  0.50       -23.9615   2.0000                                         
     2  1  0.50        -9.0305   4.0000                                         
     3  2  1.50        -9.5241   0.0000                                         
   Description                                                                  
     l       E           TYP  RCUT    TYP  RCUT                                 
     0    -23.9615318     23  1.200                                             
     0     -9.5240782     23  1.200                                             
     1     -9.0304911     23  1.520                                             
     1      8.1634956     23  1.520                                             
     2     -9.5240782      7  1.500                                             
  local pseudopotential read in
  partial core-charges read in
  partial kinetic energy density read in
  kinetic energy density of atom read in
  atomic valenz-charges read in
  non local Contribution for L=           0  read in
    real space projection operators read in
  non local Contribution for L=           0  read in
    real space projection operators read in
  non local Contribution for L=           1  read in
    real space projection operators read in
  non local Contribution for L=           1  read in
    real space projection operators read in
    PAW grid and wavefunctions read in
 
   number of l-projection  operators is LMAX  =           4
   number of lm-projection operators is LMMAX =           8
 
 Optimization of the real space projectors (new method)

 maximal supplied QI-value         = 14.36
 optimisation between [QCUT,QGAM] = [ 10.20, 20.39] = [ 29.12,116.47] Ry 
 Optimized for a Real-space Cutoff    1.51 Angstroem

   l    n(q)    QCUT    max X(q) W(low)/X(q) W(high)/X(q)  e(spline) 
   2      8    10.197    59.108    0.26E-03    0.14E-03    0.96E-07
   2      8    10.197    58.101    0.27E-03    0.14E-03    0.98E-07
   0      9    10.197   102.235    0.54E-04    0.60E-05    0.72E-07
   0      9    10.197    58.388    0.52E-04    0.60E-05    0.68E-07
   1      9    10.197    22.191    0.18E-03    0.25E-03    0.79E-07
   1      9    10.197    15.590    0.15E-03    0.21E-03    0.69E-07
 Optimization of the real space projectors (new method)

 maximal supplied QI-value         = 25.13
 optimisation between [QCUT,QGAM] = [ 10.05, 20.36] = [ 28.30,116.06] Ry 
 Optimized for a Real-space Cutoff    1.30 Angstroem

   l    n(q)    QCUT    max X(q) W(low)/X(q) W(high)/X(q)  e(spline) 
   0      8    10.053   115.676    0.49E-03    0.72E-03    0.18E-06
   0      8    10.053    87.132    0.49E-03    0.71E-03    0.18E-06
   1      7    10.053     4.429    0.32E-03    0.31E-03    0.18E-06
   1      7    10.053     2.733    0.23E-03    0.19E-03    0.20E-06
 Optimization of the real space projectors (new method)

 maximal supplied QI-value         = 24.76
 optimisation between [QCUT,QGAM] = [ 10.15, 20.30] = [ 28.85,115.39] Ry 
 Optimized for a Real-space Cutoff    1.38 Angstroem

   l    n(q)    QCUT    max X(q) W(low)/X(q) W(high)/X(q)  e(spline) 
   0      8    10.150    20.381    0.22E-03    0.32E-03    0.29E-06
   0      8    10.150    15.268    0.23E-03    0.35E-03    0.30E-06
   1      8    10.150     5.964    0.46E-03    0.53E-03    0.21E-06
   1      8    10.150     5.382    0.38E-03    0.45E-03    0.19E-06

 ----------------------------------------------------------------------------- 
|                                                                             |
|  ADVICE TO THIS USER RUNNING 'VASP/VAMP'   (HEAR YOUR MASTER'S VOICE ...):  |
|                                                                             |
|      You enforced a specific xc-type in the INCAR file,                     |
|      a different type was found on the POTCAR file                          |
|          I HOPE YOU KNOW, WHAT YOU ARE  DOING                               |
|                                                                             |
 ----------------------------------------------------------------------------- 

  PAW_PBE Pd 04Jan2005                  :
 energy of atom  1       EATOM= -809.7530
 kinetic energy error for atom=    0.0091 (will be added to EATOM!!)
  PAW_PBE C 08Apr2002                   :
 energy of atom  2       EATOM= -147.1560
 kinetic energy error for atom=    0.0288 (will be added to EATOM!!)
  PAW_PBE O 08Apr2002                   :
 energy of atom  3       EATOM= -432.3788
 kinetic energy error for atom=    0.1156 (will be added to EATOM!!)
 
 
 POSCAR: Pd55PES                                 
  positions in cartesian coordinates
  No initial velocities read in
 exchange correlation table for  LEXCH =        9
   RHO(1)=    0.500       N(1)  =     2000
   RHO(2)=  100.500       N(2)  =     4000
 


--------------------------------------------------------------------------------------------------------


 ion  position               nearest neighbor table
   1  0.446  0.328  0.417-   3 3.25   5 3.25   7 3.36  15 3.36  29 3.42  28 3.42
   2  0.672  0.554  0.417-  26 3.25  30 3.25  17 3.36   9 3.36  47 3.42  49 3.42
   3  0.554  0.328  0.417-   1 3.25   5 3.25   7 3.36  11 3.36  29 3.42  21 3.42
   4  0.328  0.554  0.417-  32 3.25  22 3.25  13 3.36   8 3.36  43 3.42  48 3.42
   5  0.500  0.383  0.340-   1 3.25   3 3.25  11 3.36  15 3.36  21 3.42  28 3.42
   6  0.500  0.383  0.660-  56 2.51  24 3.25  19 3.25  16 3.36  12 3.36  44 3.42  42 3.42
   7  0.500  0.276  0.500-  29 3.24   3 3.36   1 3.36  19 3.36  24 3.36
   8  0.276  0.500  0.500-  48 3.24  22 3.36  40 3.36   4 3.36  25 3.36
   9  0.724  0.500  0.500-  49 3.24  26 3.36  45 3.36   2 3.36  20 3.36
  10  0.500  0.724  0.500-  55 3.24  27 3.36  23 3.36  46 3.36  41 3.36
  11  0.612  0.388  0.342-  21 3.24   5 3.36   3 3.36  30 3.36  26 3.36
  12  0.612  0.388  0.658-  56 2.37  42 3.24  24 3.36  45 3.36   6 3.36  31 3.36
  13  0.388  0.612  0.342-  43 3.24  32 3.36  50 3.36   4 3.36  27 3.36
  14  0.388  0.612  0.658-  53 3.24  25 3.36  33 3.36  51 3.36  46 3.36
  15  0.388  0.388  0.342-  28 3.24   5 3.36   1 3.36  32 3.36  22 3.36
  16  0.388  0.388  0.658-  44 3.24  19 3.36  40 3.36   6 3.36  33 3.36
  17  0.612  0.612  0.342-  47 3.24  30 3.36  50 3.36   2 3.36  23 3.36
  18  0.612  0.612  0.658-  54 3.24  31 3.36  20 3.36  51 3.36  41 3.36
  19  0.446  0.328  0.583-   6 3.25  24 3.25  16 3.36   7 3.36  44 3.42  29 3.42
  20  0.672  0.554  0.583-  31 3.25  45 3.25  18 3.36   9 3.36  54 3.42  49 3.42
  21  0.558  0.442  0.418-  11 3.24   5 3.42   3 3.42  30 3.42  26 3.42
  22  0.328  0.446  0.417-   4 3.25  32 3.25   8 3.36  15 3.36  48 3.42  28 3.42
  23  0.554  0.672  0.417-  27 3.25  50 3.25  10 3.36  17 3.36  55 3.42  47 3.42
  24  0.554  0.328  0.583-  56 1.92   6 3.25  19 3.25  12 3.36   7 3.36  42 3.42  29 3.42
  25  0.328  0.554  0.583-  33 3.25  40 3.25  14 3.36   8 3.36  53 3.42  48 3.42
  26  0.672  0.446  0.417-   2 3.25  30 3.25   9 3.36  11 3.36  49 3.42  21 3.42
  27  0.446  0.672  0.417-  23 3.25  50 3.25  10 3.36  13 3.36  55 3.42  43 3.42
  28  0.442  0.442  0.418-  15 3.24   5 3.42   1 3.42  32 3.42  22 3.42
  29  0.500  0.384  0.500-   7 3.24   3 3.42   1 3.42  24 3.42  19 3.42
  30  0.617  0.500  0.340-   2 3.25  26 3.25  17 3.36  11 3.36  47 3.42  21 3.42
  31  0.617  0.500  0.660-  20 3.25  45 3.25  18 3.36  12 3.36  54 3.42  42 3.42
  32  0.383  0.500  0.340-   4 3.25  22 3.25  13 3.36  15 3.36  43 3.42  28 3.42
  33  0.383  0.500  0.660-  25 3.25  40 3.25  14 3.36  16 3.36  53 3.42  44 3.42
  34  0.383  0.383  0.500-
  35  0.617  0.617  0.500-
  36  0.617  0.383  0.500-
  37  0.383  0.617  0.500-
  38  0.500  0.500  0.335-
  39  0.500  0.500  0.665-
  40  0.328  0.446  0.583-  33 3.25  25 3.25  16 3.36   8 3.36  44 3.42  48 3.42
  41  0.554  0.672  0.583-  46 3.25  51 3.25  10 3.36  18 3.36  54 3.42  55 3.42
  42  0.558  0.442  0.582-  12 3.24   6 3.42  24 3.42  31 3.42  45 3.42
  43  0.442  0.558  0.418-  13 3.24   4 3.42  32 3.42  27 3.42  50 3.42
  44  0.442  0.442  0.582-  16 3.24   6 3.42  19 3.42  33 3.42  40 3.42
  45  0.672  0.446  0.583-  20 3.25  31 3.25   9 3.36  12 3.36  49 3.42  42 3.42
  46  0.446  0.672  0.583-  41 3.25  51 3.25  10 3.36  14 3.36  53 3.42  55 3.42
  47  0.558  0.558  0.418-  17 3.24   2 3.42  30 3.42  23 3.42  50 3.42
  48  0.384  0.500  0.500-   8 3.24   4 3.42  22 3.42  25 3.42  40 3.42
  49  0.616  0.500  0.500-   9 3.24   2 3.42  26 3.42  20 3.42  45 3.42
  50  0.500  0.617  0.340-  27 3.25  23 3.25  13 3.36  17 3.36  43 3.42  47 3.42
  51  0.500  0.617  0.660-  41 3.25  46 3.25  14 3.36  18 3.36  53 3.42  54 3.42
  52  0.500  0.500  0.500-
  53  0.442  0.558  0.582-  14 3.24  25 3.42  33 3.42  51 3.42  46 3.42
  54  0.558  0.558  0.582-  18 3.24  31 3.42  20 3.42  51 3.42  41 3.42
  55  0.500  0.616  0.500-  10 3.24  23 3.42  27 3.42  41 3.42  46 3.42
  56  0.562  0.328  0.647-  57 1.13  24 1.92  12 2.37   6 2.51
  57  0.572  0.300  0.670-  56 1.13
 
  LATTYP: Found a simple cubic cell.
 ALAT       =    30.0000000000
  
  Lattice vectors:
  
 A1 = (  30.0000000000,   0.0000000000,   0.0000000000)
 A2 = (   0.0000000000,  30.0000000000,   0.0000000000)
 A3 = (   0.0000000000,   0.0000000000,  30.0000000000)


Analysis of symmetry for initial positions (statically):
=====================================================================
 Subroutine PRICEL returns:
 Original cell was already a primitive cell.
 

 Routine SETGRP: Setting up the symmetry group for a 
 simple cubic supercell.


 Subroutine GETGRP returns: Found  1 space group operations
 (whereof  1 operations were pure point group operations)
 out of a pool of 48 trial point group operations.


The static configuration has the point symmetry C_1 .


Analysis of symmetry for dynamics (positions and initial velocities):
=====================================================================
 Subroutine PRICEL returns:
 Original cell was already a primitive cell.
 

 Routine SETGRP: Setting up the symmetry group for a 
 simple cubic supercell.


 Subroutine GETGRP returns: Found  1 space group operations
 (whereof  1 operations were pure point group operations)
 out of a pool of 48 trial point group operations.


The dynamic configuration has the point symmetry C_1 .


Analysis of constrained symmetry for selective dynamics:
=====================================================================
 Subroutine PRICEL returns:
 Original cell was already a primitive cell.
 

 Routine SETGRP: Setting up the symmetry group for a 
 simple cubic supercell.


 Subroutine GETGRP returns: Found  1 space group operations
 (whereof  1 operations were pure point group operations)
 out of a pool of 48 trial point group operations.


The constrained configuration has the point symmetry C_1 .


 Subroutine INISYM returns: Found  1 space group operations
 (whereof  1 operations are pure point group operations),
 and found     1 'primitive' translations

 
 
 KPOINTS: K-points                                

Automatic generation of k-mesh.
Space group operators:
 irot       det(A)        alpha          n_x          n_y          n_z        tau_x        tau_y        tau_z
    1     1.000000     0.000000     1.000000     0.000000     0.000000     0.000000     0.000000     0.000000
 
 Subroutine IBZKPT returns following result:
 ===========================================
 
 Found      1 irreducible k-points:
 
 Following reciprocal coordinates:
            Coordinates               Weight
  0.000000  0.000000  0.000000      1.000000
 
 Following cartesian coordinates:
            Coordinates               Weight
  0.000000  0.000000  0.000000      1.000000
 


--------------------------------------------------------------------------------------------------------




 Dimension of arrays:
   k-points           NKPTS =      1   k-points in BZ     NKDIM =      1   number of bands    NBANDS=    336
   number of dos      NEDOS =    301   number of ions     NIONS =     57
   non local maximal  LDIM  =      6   non local SUM 2l+1 LMDIM =     18
   total plane-waves  NPLWV = ******
   max r-space proj   IRMAX =   1847   max aug-charges    IRDMAX=   6262
   dimension x,y,z NGX =   150 NGY =  150 NGZ =  150
   dimension x,y,z NGXF=   300 NGYF=  300 NGZF=  300
   support grid    NGXF=   300 NGYF=  300 NGZF=  300
   ions per type =              55   1   1
   NGX,Y,Z   is equivalent  to a cutoff of   8.31,  8.31,  8.31 a.u.
   NGXF,Y,Z  is equivalent  to a cutoff of  16.62, 16.62, 16.62 a.u.

 SYSTEM =  6_Pd100_top_free_z(O)                   
 POSCAR =  Pd55PES                                 

 Startparameter for this run:
   NWRITE =      2    write-flag & timer
   PREC   = normal    normal or accurate (medium, high low for compatibility)
   ISTART =      0    job   : 0-new  1-cont  2-samecut
   ICHARG =      2    charge: 1-file 2-atom 10-const
   ISPIN  =      1    spin polarized calculation?
   LNONCOLLINEAR =      F non collinear calculations
   LSORBIT =      F    spin-orbit coupling
   INIWAV =      1    electr: 0-lowe 1-rand  2-diag
   LASPH  =      F    aspherical Exc in radial PAW
   METAGGA=      F    non-selfconsistent MetaGGA calc.

 Electronic Relaxation 1
   ENCUT  =  400.0 eV  29.40 Ry    5.42 a.u.  48.92 48.92 48.92*2*pi/ulx,y,z
   ENINI  =  400.0     initial cutoff
   ENAUG  =  644.9 eV  augmentation charge cutoff
   NELM   =    100;   NELMIN=  6; NELMDL= -5     # of ELM steps 
   EDIFF  = 0.1E-03   stopping-criterion for ELM
   LREAL  =      T    real-space projection
   NLSPLINE    = F    spline interpolate recip. space projectors
   LCOMPAT=      F    compatible to vasp.4.4
   GGA_COMPAT  = T    GGA compatible to vasp.4.4-vasp.4.6
   LMAXPAW     = -100 max onsite density
   LMAXMIX     =    2 max onsite mixed and CHGCAR
   VOSKOWN=      0    Vosko Wilk Nusair interpolation
   ROPT   =   -0.00050  -0.00050  -0.00050
 Ionic relaxation
   EDIFFG = -.5E-01   stopping-criterion for IOM
   NSW    =      0    number of steps for IOM
   NBLOCK =      1;   KBLOCK =      1    inner block; outer block 
   IBRION =     -1    ionic relax: 0-MD 1-quasi-New 2-CG
   NFREE  =      1    steps in history (QN), initial steepest desc. (CG)
   ISIF   =      2    stress and relaxation
   IWAVPR =     10    prediction:  0-non 1-charg 2-wave 3-comb
   ISYM   =      2    0-nonsym 1-usesym 2-fastsym
   LCORR  =      T    Harris-Foulkes like correction to forces

   POTIM  = 0.5000    time-step for ionic-motion
   TEIN   =    0.0    initial temperature
   TEBEG  =    0.0;   TEEND  =   0.0 temperature during run
   SMASS  =  -3.00    Nose mass-parameter (am)
   estimated Nose-frequenzy (Omega)   =  0.10E-29 period in steps =****** mass=  -0.206E-25a.u.
   SCALEE = 1.0000    scale energy and forces
   NPACO  =    256;   APACO  = 16.0  distance and # of slots for P.C.
   PSTRESS=    0.0 pullay stress

  Mass of Ions in am
   POMASS = 106.42 12.01 16.00
  Ionic Valenz
   ZVAL   =  10.00  4.00  6.00
  Atomic Wigner-Seitz radii
   RWIGS  =  -1.00 -1.00 -1.00
  virtual crystal weights 
   VCA    =   1.00  1.00  1.00
   NELECT =     560.0000    total number of electrons
   NUPDOWN=      -1.0000    fix difference up-down

 DOS related values:
   EMIN   =  10.00;   EMAX   =-10.00  energy-range for DOS
   EFERMI =   0.00
   ISMEAR =     2;   SIGMA  =   0.20  broadening in eV -4-tet -1-fermi 0-gaus

 Electronic relaxation 2 (details)
   IALGO  =     68    algorithm
   LDIAG  =      T    sub-space diagonalisation (order eigenvalues)
   LSUBROT=      F    optimize rotation matrix (better conditioning)
   TURBO    =      0    0=normal 1=particle mesh
   IRESTART =      0    0=no restart 2=restart with 2 vectors
   NREBOOT  =      0    no. of reboots
   NMIN     =      0    reboot dimension
   EREF     =   0.00    reference energy to select bands
   IMIX   =      4    mixing-type and parameters
     AMIX     =   0.40;   BMIX     =  1.00
     AMIX_MAG =   1.60;   BMIX_MAG =  1.00
     AMIN     =   0.10
     WC   =   100.;   INIMIX=   1;  MIXPRE=   1;  MAXMIX= -45

 Intra band minimization:
   WEIMIN = 0.0000     energy-eigenvalue tresh-hold
   EBREAK =  0.74E-07  absolut break condition
   DEPER  =   0.30     relativ break condition  

   TIME   =   0.40     timestep for ELM

  volume/ion in A,a.u.               =     473.68      3196.58
  Fermi-wavevector in a.u.,A,eV,Ry     =   0.449797  0.849992  2.752691  0.202317
  Thomas-Fermi vector in A             =   1.430086
 
 Write flags
   LWAVE        =      F    write WAVECAR
   LDOWNSAMPLE  =      F    k-point downsampling of WAVECAR
   LCHARG       =      F    write CHGCAR
   LVTOT        =      F    write LOCPOT, total local potential
   LVHAR        =      F    write LOCPOT, Hartree potential only
   LELF         =      F    write electronic localiz. function (ELF)
   LORBIT       =      0    0 simple, 1 ext, 2 COOP (PROOUT), +10 PAW based schemes


 Dipole corrections
   LMONO  =      F    monopole corrections only (constant potential shift)
   LDIPOL =      F    correct potential (dipole corrections)
   IDIPOL =      0    1-x, 2-y, 3-z, 4-all directions 
   EPSILON=  1.0000000 bulk dielectric constant

 Exchange correlation treatment:
   GGA     =    RP    GGA type
   LEXCH   =     9    internal setting for exchange type
   VOSKOWN=      0    Vosko Wilk Nusair interpolation
   LHFCALC =     F    Hartree Fock is set to
   LHFONE  =     F    Hartree Fock one center treatment
   AEXX    =    0.0000 exact exchange contribution

 Linear response parameters
   LEPSILON=     F    determine dielectric tensor
   LRPA    =     F    only Hartree local field effects (RPA)
   LNABLA  =     F    use nabla operator in PAW spheres
   LVEL    =     F    velocity operator in full k-point grid
   LINTERFAST=   F  fast interpolation
   KINTER  =     0    interpolate to denser k-point grid
   CSHIFT  =0.1000    complex shift for real part using Kramers Kronig
   OMEGAMAX=  -1.0    maximum frequency
   DEG_THRESHOLD= 0.2000000E-02 threshold for treating states as degnerate
   RTIME   =   -0.100 relaxation time in fs
  (WPLASMAI=    0.000 imaginary part of plasma frequency in eV, 0.658/RTIME)
   DFIELD  = 0.0000000 0.0000000 0.0000000 field for delta impulse in time
 
 Orbital magnetization related:
   ORBITALMAG=     F  switch on orbital magnetization
   LCHIMAG   =     F  perturbation theory with respect to B field
   DQ        =  0.001000  dq finite difference perturbation B field
   LLRAUG    =     F  two centre corrections for induced B field



--------------------------------------------------------------------------------------------------------


 Static calculation
 charge density and potential will be updated during run
 non-spin polarized calculation
 RMM-DIIS sequential band-by-band and
  variant of blocked Davidson during initial phase
 perform sub-space diagonalisation
    before iterative eigenvector-optimisation
 modified Broyden-mixing scheme, WC =      100.0
 initial mixing is a Kerker type mixing with AMIX =  0.4000 and BMIX =      1.0000
 Hartree-type preconditioning will be used
 using additional bands           56
 real space projection scheme for non local part
 use partial core corrections
 calculate Harris-corrections to forces 
   (improved forces if not selfconsistent)
 use gradient corrections 
 use of overlap-Matrix (Vanderbilt PP)
 Methfessel and Paxton  Order N= 2 SIGMA  =   0.20


--------------------------------------------------------------------------------------------------------


  energy-cutoff  :      400.00
  volume of cell :    27000.00
      direct lattice vectors                 reciprocal lattice vectors
    30.000000000  0.000000000  0.000000000     0.033333333  0.000000000  0.000000000
     0.000000000 30.000000000  0.000000000     0.000000000  0.033333333  0.000000000
     0.000000000  0.000000000 30.000000000     0.000000000  0.000000000  0.033333333

  length of vectors
    30.000000000 30.000000000 30.000000000     0.033333333  0.033333333  0.033333333


 
 k-points in units of 2pi/SCALE and weight: K-points                                
   0.00000000  0.00000000  0.00000000       1.000
 
 k-points in reciprocal lattice and weights: K-points                                
   0.00000000  0.00000000  0.00000000       1.000
 
 position of ions in fractional coordinates (direct lattice) 
   0.44576020  0.32826710  0.41691983
   0.67173288  0.55423978  0.41691983
   0.55423980  0.32826710  0.41691983
   0.32826712  0.55423978  0.41691983
   0.50000000  0.38250690  0.34021317
   0.50000000  0.38250690  0.65978680
   0.50000000  0.27609440  0.50000000
   0.27609443  0.49999998  0.50000000
   0.72390557  0.49999998  0.50000000
   0.50000000  0.72390555  0.50000000
   0.61195280  0.38804720  0.34167483
   0.61195280  0.38804720  0.65832513
   0.38804722  0.61195278  0.34167483
   0.38804722  0.61195278  0.65832513
   0.38804720  0.38804720  0.34167483
   0.38804720  0.38804720  0.65832513
   0.61195278  0.61195278  0.34167483
   0.61195278  0.61195278  0.65832513
   0.44576020  0.32826710  0.58308023
   0.67173288  0.55423978  0.58308023
   0.55791699  0.44208301  0.41809300
   0.32826705  0.44576024  0.41691983
   0.55423973  0.67173293  0.41691983
   0.55423980  0.32826710  0.58308023
   0.32826712  0.55423978  0.58308023
   0.67173295  0.44576024  0.41691983
   0.44576027  0.67173293  0.41691983
   0.44208301  0.44208301  0.41809300
   0.50000000  0.38416601  0.50000000
   0.61749315  0.50000005  0.34021317
   0.61749315  0.50000005  0.65978680
   0.38250685  0.50000005  0.34021317
   0.38250685  0.50000005  0.65978680
   0.38317830  0.38317830  0.50000000
   0.61682172  0.61682172  0.50000000
   0.61682170  0.38317830  0.50000000
   0.38317828  0.61682172  0.50000000
   0.50000000  0.50000000  0.33478917
   0.50000000  0.50000000  0.66521087
   0.32826705  0.44576024  0.58308023
   0.55423973  0.67173293  0.58308023
   0.55791699  0.44208301  0.58190703
   0.44208298  0.55791702  0.41809300
   0.44208301  0.44208301  0.58190703
   0.67173295  0.44576024  0.58308023
   0.44576027  0.67173293  0.58308023
   0.55791702  0.55791702  0.41809300
   0.38416599  0.50000002  0.50000000
   0.61583401  0.50000002  0.50000000
   0.50000000  0.61749319  0.34021317
   0.50000000  0.61749319  0.65978680
   0.50000000  0.50000000  0.50000000
   0.44208298  0.55791702  0.58190703
   0.55791702  0.55791702  0.58190703
   0.50000000  0.61583404  0.50000000
   0.56196197  0.32789403  0.64654660
   0.57190193  0.30028467  0.67005573
 
 position of ions in cartesian coordinates  (Angst):
  13.37280588  9.84801292 12.50759500
  20.15198637 16.62719342 12.50759500
  16.62719412  9.84801292 12.50759500
   9.84801363 16.62719342 12.50759500
  15.00000000 11.47520705 10.20639500
  15.00000000 11.47520705 19.79360400
  15.00000000  8.28283206 15.00000000
   8.28283277 14.99999929 15.00000000
  21.71716723 14.99999929 15.00000000
  15.00000000 21.71716652 14.99999999
  18.35858397 11.64141603 10.25024500
  18.35858397 11.64141603 19.74975399
  11.64141674 18.35858326 10.25024500
  11.64141674 18.35858326 19.74975400
  11.64141603 11.64141603 10.25024500
  11.64141603 11.64141603 19.74975400
  18.35858326 18.35858326 10.25024500
  18.35858326 18.35858326 19.74975400
  13.37280588  9.84801291 17.49240700
  20.15198638 16.62719341 17.49240700
  16.73750985 13.26249015 12.54279000
   9.84801151 13.37280729 12.50759500
  16.62719200 20.15198779 12.50759500
  16.62719412  9.84801292 17.49240700
   9.84801363 16.62719342 17.49240700
  20.15198849 13.37280729 12.50759500
  13.37280800 20.15198779 12.50759500
  13.26249015 13.26249015 12.54279000
  15.00000000 11.52498029 15.00000000
  18.52479437 15.00000140 10.20639500
  18.52479437 15.00000141 19.79360400
  11.47520562 15.00000141 10.20639501
  11.47520563 15.00000141 19.79360400
  11.49534898 11.49534898 15.00000000
  18.50465172 18.50465172 15.00000000
  18.50465102 11.49534898 15.00000000
  11.49534828 18.50465172 15.00000000
  15.00000000 15.00000000 10.04367500
  15.00000000 15.00000000 19.95632599
   9.84801151 13.37280729 17.49240700
  16.62719200 20.15198779 17.49240700
  16.73750985 13.26249015 17.45721100
  13.26248944 16.73751056 12.54279001
  13.26249015 13.26249015 17.45721100
  20.15198849 13.37280729 17.49240699
  13.37280800 20.15198779 17.49240700
  16.73751056 16.73751056 12.54279000
  11.52497959 15.00000071 15.00000000
  18.47502041 15.00000071 15.00000000
  14.99999999 18.52479579 10.20639500
  15.00000000 18.52479578 19.79360400
  15.00000000 15.00000000 15.00000000
  13.26248944 16.73751057 17.45721101
  16.73751056 16.73751057 17.45721100
  15.00000000 18.47502112 15.00000000
  16.85885900  9.83682100 19.39639800
  17.15705800  9.00854000 20.10167200
 


--------------------------------------------------------------------------------------------------------


 k-point  1 :   0.0000 0.0000 0.0000  plane waves:  490521

 maximum and minimum number of plane-waves per node :    490521   490521

 maximum number of plane-waves:    490521
 maximum index in each direction: 
   IXMAX=   48   IYMAX=   48   IZMAX=   48
   IXMIN=  -48   IYMIN=  -48   IZMIN=  -48


 serial   3D FFT for wavefunctions
 parallel 3D FFT for charge:
    minimum data exchange during FFTs selected (reduces bandwidth)


 total amount of memory used by VASP MPI-rank0  5486942. kBytes
=======================================================================

   base      :      30000. kBytes
   nonlr-proj:      17127. kBytes
   fftplans  :     924480. kBytes
   grid      :    1872000. kBytes
   one-center:        886. kBytes
   wavefun   :    2642449. kBytes
 
     INWAV:  cpu time    0.0001: real time    0.0004
 Broyden mixing: mesh for mixing (old mesh)
   NGX = 97   NGY = 97   NGZ = 97
  (NGX  =300   NGY  =300   NGZ  =300)
  gives a total of 912673 points

 initial charge density was supplied:
 charge density of overlapping atoms calculated
 number of electron     560.0000000 magnetization 
 keeping initial charge density in first step


--------------------------------------------------------------------------------------------------------


 Maximum index for non-local projection operator         1763
 Maximum index for augmentation-charges         5898 (set IRDMAX)


--------------------------------------------------------------------------------------------------------


 First call to EWALD:  gamma=   0.059
 Maximum number of real-space cells 3x 3x 3
 Maximum number of reciprocal cells 3x 3x 3

    FEWALD:  cpu time    0.0206: real time    0.0206


--------------------------------------- Iteration      1(   1)  ---------------------------------------


    POTLOK:  cpu time   18.7519: real time   18.7558
    SETDIJ:  cpu time    0.1477: real time    0.1477
     EDDAV:  cpu time  559.8538: real time  560.0319
       DOS:  cpu time    0.0019: real time    0.0019
    --------------------------------------------
      LOOP:  cpu time  578.7554: real time  578.9374

 eigenvalue-minimisations  :   688
 total energy-change (2. order) : 0.4395192E+04  (-0.1005240E+05)
 number of electron     560.0000000 magnetization 
 augmentation part      560.0000000 magnetization 

 Free energy of the ion-electron system (eV)
  ---------------------------------------------------
  alpha Z        PSCENC =        75.25431677
  Ewald energy   TEWEN  =    138791.59568003
  -Hartree energ DENC   =   -182146.95935793
  -exchange      EXHF   =         0.00000000
  -V(xc)+E(xc)   XCENC  =     -1702.21732500
  PAW double counting   =     44873.02882129   -41398.84523641
  entropy T*S    EENTRO =        -0.00209868
  eigenvalues    EBANDS =       816.83168838
  atomic energy  EATOM  =     45086.50549395
  Solvation  Ediel_sol  =         0.00000000
  ---------------------------------------------------
  free energy    TOTEN  =      4395.19198241 eV

  energy without entropy =     4395.19408109  energy(sigma->0) =     4395.19250708


--------------------------------------------------------------------------------------------------------




--------------------------------------- Iteration      1(   2)  ---------------------------------------


     EDDAV:  cpu time  906.0565: real time  906.0762
       DOS:  cpu time    0.0016: real time    0.0016
    --------------------------------------------
      LOOP:  cpu time  906.0581: real time  906.0778

 eigenvalue-minimisations  :  1224
 total energy-change (2. order) :-0.2382290E+04  (-0.2144282E+04)
 number of electron     560.0000000 magnetization 
 augmentation part      560.0000000 magnetization 

 Free energy of the ion-electron system (eV)
  ---------------------------------------------------
  alpha Z        PSCENC =        75.25431677
  Ewald energy   TEWEN  =    138791.59568003
  -Hartree energ DENC   =   -182146.95935793
  -exchange      EXHF   =         0.00000000
  -V(xc)+E(xc)   XCENC  =     -1702.21732500
  PAW double counting   =     44873.02882129   -41398.84523641
  entropy T*S    EENTRO =        -0.01352500
  eigenvalues    EBANDS =     -1565.44683296
  atomic energy  EATOM  =     45086.50549395
  Solvation  Ediel_sol  =         0.00000000
  ---------------------------------------------------
  free energy    TOTEN  =      2012.90203474 eV

  energy without entropy =     2012.91555974  energy(sigma->0) =     2012.90541599


--------------------------------------------------------------------------------------------------------




--------------------------------------- Iteration      1(   3)  ---------------------------------------


     EDDAV:  cpu time  761.7716: real time  761.7800
       DOS:  cpu time    0.0015: real time    0.0015
    --------------------------------------------
      LOOP:  cpu time  761.7731: real time  761.7815

 eigenvalue-minimisations  :  1008
 total energy-change (2. order) :-0.1785449E+04  (-0.1681245E+04)
 number of electron     560.0000000 magnetization 
 augmentation part      560.0000000 magnetization 

 Free energy of the ion-electron system (eV)
  ---------------------------------------------------
  alpha Z        PSCENC =        75.25431677
  Ewald energy   TEWEN  =    138791.59568003
  -Hartree energ DENC   =   -182146.95935793
  -exchange      EXHF   =         0.00000000
  -V(xc)+E(xc)   XCENC  =     -1702.21732500
  PAW double counting   =     44873.02882129   -41398.84523641
  entropy T*S    EENTRO =         0.01157544
  eigenvalues    EBANDS =     -3350.92117040
  atomic energy  EATOM  =     45086.50549395
  Solvation  Ediel_sol  =         0.00000000
  ---------------------------------------------------
  free energy    TOTEN  =       227.45279774 eV

  energy without entropy =      227.44122230  energy(sigma->0) =      227.44990388


--------------------------------------------------------------------------------------------------------




--------------------------------------- Iteration      1(   4)  ---------------------------------------


     EDDAV:  cpu time  643.6726: real time  643.6783
       DOS:  cpu time    0.0016: real time    0.0016
    --------------------------------------------
      LOOP:  cpu time  643.6742: real time  643.6799

 eigenvalue-minimisations  :   832
 total energy-change (2. order) :-0.3638039E+03  (-0.3104620E+03)
 number of electron     560.0000000 magnetization 
 augmentation part      560.0000000 magnetization 

 Free energy of the ion-electron system (eV)
  ---------------------------------------------------
  alpha Z        PSCENC =        75.25431677
  Ewald energy   TEWEN  =    138791.59568003
  -Hartree energ DENC   =   -182146.95935793
  -exchange      EXHF   =         0.00000000
  -V(xc)+E(xc)   XCENC  =     -1702.21732500
  PAW double counting   =     44873.02882129   -41398.84523641
  entropy T*S    EENTRO =         0.00429433
  eigenvalues    EBANDS =     -3714.71781738
  atomic energy  EATOM  =     45086.50549395
  Solvation  Ediel_sol  =         0.00000000
  ---------------------------------------------------
  free energy    TOTEN  =      -136.35113035 eV

  energy without entropy =     -136.35542468  energy(sigma->0) =     -136.35220393


--------------------------------------------------------------------------------------------------------




--------------------------------------- Iteration      1(   5)  ---------------------------------------


     EDDAV:  cpu time  778.9056: real time  778.9229
       DOS:  cpu time    0.0019: real time    0.0019
    CHARGE:  cpu time   37.8102: real time   37.8102
    MIXING:  cpu time    0.6640: real time    0.6640
    --------------------------------------------
      LOOP:  cpu time  817.3816: real time  817.3990

 eigenvalue-minimisations  :  1056
 total energy-change (2. order) :-0.4459575E+02  (-0.3675492E+02)
 number of electron     559.9999891 magnetization 
 augmentation part      245.0604818 magnetization 

 Broyden mixing:
  rms(total) = 0.15815E+01    rms(broyden)= 0.15805E+01
  rms(prec ) = 0.16875E+01
  weight for this iteration     100.00

 Free energy of the ion-electron system (eV)
  ---------------------------------------------------
  alpha Z        PSCENC =        75.25431677
  Ewald energy   TEWEN  =    138791.59568003
  -Hartree energ DENC   =   -182146.95935793
  -exchange      EXHF   =         0.00000000
  -V(xc)+E(xc)   XCENC  =     -1702.21732500
  PAW double counting   =     44873.02882129   -41398.84523641
  entropy T*S    EENTRO =         0.51948766
  eigenvalues    EBANDS =     -3759.82876323
  atomic energy  EATOM  =     45086.50549395
  Solvation  Ediel_sol  =         0.00000000
  ---------------------------------------------------
  free energy    TOTEN  =      -180.94688287 eV

  energy without entropy =     -181.46637052  energy(sigma->0) =     -181.07675478


--------------------------------------------------------------------------------------------------------




--------------------------------------- Iteration      1(   6)  ---------------------------------------


    POTLOK:  cpu time   17.7511: real time   17.7539
    SETDIJ:  cpu time    0.1548: real time    0.1548
    EDDIAG:  cpu time  101.5343: real time  101.5410
  RMM-DIIS:  cpu time  295.4925: real time  295.4969
    ORTHCH:  cpu time   20.2607: real time   20.2607
       DOS:  cpu time    0.0020: real time    0.0020
    CHARGE:  cpu time   37.2763: real time   37.2763
    MIXING:  cpu time    0.6695: real time    0.6695
    --------------------------------------------
      LOOP:  cpu time  473.1412: real time  473.1551

 eigenvalue-minimisations  :   726
 total energy-change (2. order) : 0.8602026E+00  (-0.5734280E+01)
 number of electron     559.9999885 magnetization 
 augmentation part      240.6730526 magnetization 

 Broyden mixing:
  rms(total) = 0.20022E+01    rms(broyden)= 0.20020E+01
  rms(prec ) = 0.22755E+01
  weight for this iteration     100.00

 eigenvalues of (default mixing * dielectric matrix)
  average eigenvalue GAMMA=   0.4055
  0.4055

 Free energy of the ion-electron system (eV)
  ---------------------------------------------------
  alpha Z        PSCENC =        75.25431677
  Ewald energy   TEWEN  =    138791.59568003
  -Hartree energ DENC   =   -182554.31700030
  -exchange      EXHF   =         0.00000000
  -V(xc)+E(xc)   XCENC  =     -1695.76701629
  PAW double counting   =     45659.27002034   -42158.65881534
  entropy T*S    EENTRO =        -0.17310289
  eigenvalues    EBANDS =     -3383.79625656
  atomic energy  EATOM  =     45086.50549395
  Solvation  Ediel_sol  =         0.00000000
  ---------------------------------------------------
  free energy    TOTEN  =      -180.08668029 eV

  energy without entropy =     -179.91357740  energy(sigma->0) =     -180.04340456


--------------------------------------------------------------------------------------------------------




--------------------------------------- Iteration      1(   7)  ---------------------------------------


    POTLOK:  cpu time   17.8619: real time   17.8650
    SETDIJ:  cpu time    0.1517: real time    0.1518
    EDDIAG:  cpu time  101.7246: real time  101.7266
  RMM-DIIS:  cpu time  344.6975: real time  344.7072
    ORTHCH:  cpu time   20.5640: real time   20.5643
       DOS:  cpu time    0.0019: real time    0.0019
    CHARGE:  cpu time   37.4664: real time   37.4669
    MIXING:  cpu time    0.7068: real time    0.7068
    --------------------------------------------
      LOOP:  cpu time  523.1747: real time  523.1905

 eigenvalue-minimisations  :   835
 total energy-change (2. order) :-0.1671049E+01  (-0.1918554E+01)
 number of electron     559.9999877 magnetization 
 augmentation part      240.3900664 magnetization 

 Broyden mixing:
  rms(total) = 0.19222E+01    rms(broyden)= 0.19220E+01
  rms(prec ) = 0.21919E+01
  weight for this iteration     100.00

 eigenvalues of (default mixing * dielectric matrix)
  average eigenvalue GAMMA=   0.4148
  0.6382  0.1914

 Free energy of the ion-electron system (eV)
  ---------------------------------------------------
  alpha Z        PSCENC =        75.25431677
  Ewald energy   TEWEN  =    138791.59568003
  -Hartree energ DENC   =   -182657.20071570
  -exchange      EXHF   =         0.00000000
  -V(xc)+E(xc)   XCENC  =     -1696.02692257
  PAW double counting   =     45754.08047714   -42250.15952334
  entropy T*S    EENTRO =        -0.14666448
  eigenvalues    EBANDS =     -3285.65987102
  atomic energy  EATOM  =     45086.50549395
  Solvation  Ediel_sol  =         0.00000000
  ---------------------------------------------------
  free energy    TOTEN  =      -181.75772922 eV

  energy without entropy =     -181.61106474  energy(sigma->0) =     -181.72106310


--------------------------------------------------------------------------------------------------------




--------------------------------------- Iteration      1(   8)  ---------------------------------------


    POTLOK:  cpu time   17.4996: real time   17.5024
    SETDIJ:  cpu time    0.1728: real time    0.1729
    EDDIAG:  cpu time  101.2095: real time  101.2119
  RMM-DIIS:  cpu time  288.7806: real time  288.7934
    ORTHCH:  cpu time   20.2894: real time   20.2897
       DOS:  cpu time    0.0019: real time    0.0019
    CHARGE:  cpu time   38.1335: real time   38.1341
    MIXING:  cpu time    0.7961: real time    0.7961
    --------------------------------------------
      LOOP:  cpu time  466.8836: real time  466.9024

 eigenvalue-minimisations  :   740
 total energy-change (2. order) :-0.2064462E+01  (-0.7757433E+00)
 number of electron     559.9999878 magnetization 
 augmentation part      240.7727670 magnetization 

 Broyden mixing:
  rms(total) = 0.27667E+01    rms(broyden)= 0.27664E+01
  rms(prec ) = 0.33081E+01
  weight for this iteration     100.00

 eigenvalues of (default mixing * dielectric matrix)
  average eigenvalue GAMMA=   0.3547
  0.7335  0.2018  0.1288

 Free energy of the ion-electron system (eV)
  ---------------------------------------------------
  alpha Z        PSCENC =        75.25431677
  Ewald energy   TEWEN  =    138791.59568003
  -Hartree energ DENC   =   -182677.54445806
  -exchange      EXHF   =         0.00000000
  -V(xc)+E(xc)   XCENC  =     -1695.93265109
  PAW double counting   =     45852.98121660   -42345.45917770
  entropy T*S    EENTRO =        -0.15746198
  eigenvalues    EBANDS =     -3271.06514991
  atomic energy  EATOM  =     45086.50549395
  Solvation  Ediel_sol  =         0.00000000
  ---------------------------------------------------
  free energy    TOTEN  =      -183.82219139 eV

  energy without entropy =     -183.66472941  energy(sigma->0) =     -183.78282590


--------------------------------------------------------------------------------------------------------




--------------------------------------- Iteration      1(   9)  ---------------------------------------


    POTLOK:  cpu time   18.6249: real time   18.6272
    SETDIJ:  cpu time    0.1590: real time    0.1591
    EDDIAG:  cpu time  108.4759: real time  108.4787
  RMM-DIIS:  cpu time  318.1252: real time  318.1348
    ORTHCH:  cpu time   22.0494: real time   22.0498
       DOS:  cpu time    0.0020: real time    0.0020
    CHARGE:  cpu time   39.9917: real time   39.9922
    MIXING:  cpu time    0.8703: real time    0.8703
    --------------------------------------------
      LOOP:  cpu time  508.2985: real time  508.3141

 eigenvalue-minimisations  :   756
 total energy-change (2. order) : 0.2363284E+01  (-0.3973145E+00)
 number of electron     559.9999899 magnetization 
 augmentation part      241.2752691 magnetization 

 Broyden mixing:
  rms(total) = 0.22443E+01    rms(broyden)= 0.22440E+01
  rms(prec ) = 0.25889E+01
  weight for this iteration     100.00

 eigenvalues of (default mixing * dielectric matrix)
  average eigenvalue GAMMA=   0.3246
  0.8185  0.1917  0.1917  0.0964

 Free energy of the ion-electron system (eV)
  ---------------------------------------------------
  alpha Z        PSCENC =        75.25431677
  Ewald energy   TEWEN  =    138791.59568003
  -Hartree energ DENC   =   -182703.32728892
  -exchange      EXHF   =         0.00000000
  -V(xc)+E(xc)   XCENC  =     -1695.83578967
  PAW double counting   =     45903.33951630   -42394.07820249
  entropy T*S    EENTRO =        -0.17292023
  eigenvalues    EBANDS =     -3244.73971304
  atomic energy  EATOM  =     45086.50549395
  Solvation  Ediel_sol  =         0.00000000
  ---------------------------------------------------
  free energy    TOTEN  =      -181.45890729 eV

  energy without entropy =     -181.28598707  energy(sigma->0) =     -181.41567724


--------------------------------------------------------------------------------------------------------




--------------------------------------- Iteration      1(  10)  ---------------------------------------


    POTLOK:  cpu time   19.8545: real time   19.8575
    SETDIJ:  cpu time    0.1586: real time    0.1586
    EDDIAG:  cpu time  107.5615: real time  107.5665
  RMM-DIIS:  cpu time  307.7870: real time  307.7965
    ORTHCH:  cpu time   22.0565: real time   22.0568
       DOS:  cpu time    0.0021: real time    0.0021
    CHARGE:  cpu time   39.6342: real time   39.6347
    MIXING:  cpu time    0.9311: real time    0.9311
    --------------------------------------------
      LOOP:  cpu time  497.9854: real time  498.0038

 eigenvalue-minimisations  :   727
 total energy-change (2. order) : 0.2678573E+01  (-0.3011780E+00)
 number of electron     559.9999874 magnetization 
 augmentation part      241.4706450 magnetization 

 Broyden mixing:
  rms(total) = 0.16882E+01    rms(broyden)= 0.16878E+01
  rms(prec ) = 0.19887E+01
  weight for this iteration     100.00

 eigenvalues of (default mixing * dielectric matrix)
  average eigenvalue GAMMA=   0.3078
  0.8824  0.2281  0.2281  0.1002  0.1002

 Free energy of the ion-electron system (eV)
  ---------------------------------------------------
  alpha Z        PSCENC =        75.25431677
  Ewald energy   TEWEN  =    138791.59568003
  -Hartree energ DENC   =   -182736.13463890
  -exchange      EXHF   =         0.00000000
  -V(xc)+E(xc)   XCENC  =     -1695.67526785
  PAW double counting   =     45952.90796676   -42441.83998867
  entropy T*S    EENTRO =        -0.08395176
  eigenvalues    EBANDS =     -3211.30994479
  atomic energy  EATOM  =     45086.50549395
  Solvation  Ediel_sol  =         0.00000000
  ---------------------------------------------------
  free energy    TOTEN  =      -178.78033445 eV

  energy without entropy =     -178.69638269  energy(sigma->0) =     -178.75934651


--------------------------------------------------------------------------------------------------------




--------------------------------------- Iteration      1(  11)  ---------------------------------------


    POTLOK:  cpu time   19.9538: real time   19.9564
    SETDIJ:  cpu time    0.1610: real time    0.1610
    EDDIAG:  cpu time  106.6927: real time  106.6969
  RMM-DIIS:  cpu time  307.7937: real time  307.8027
    ORTHCH:  cpu time   22.0002: real time   22.0004
       DOS:  cpu time    0.0019: real time    0.0019
    CHARGE:  cpu time   39.7593: real time   39.7599
    MIXING:  cpu time    0.9914: real time    0.9919
    --------------------------------------------
      LOOP:  cpu time  497.3540: real time  497.3711

 eigenvalue-minimisations  :   729
 total energy-change (2. order) : 0.5499235E+00  (-0.1735678E+00)
 number of electron     559.9999885 magnetization 
 augmentation part      241.5610076 magnetization 

 Broyden mixing:
  rms(total) = 0.16494E+01    rms(broyden)= 0.16491E+01
  rms(prec ) = 0.19912E+01
  weight for this iteration     100.00

 eigenvalues of (default mixing * dielectric matrix)
  average eigenvalue GAMMA=   0.2981
  0.9362  0.2753  0.2753  0.1126  0.1126  0.0763

 Free energy of the ion-electron system (eV)
  ---------------------------------------------------
  alpha Z        PSCENC =        75.25431677
  Ewald energy   TEWEN  =    138791.59568003
  -Hartree energ DENC   =   -182753.71170998
  -exchange      EXHF   =         0.00000000
  -V(xc)+E(xc)   XCENC  =     -1695.47841823
  PAW double counting   =     45989.50758330   -42476.94458444
  entropy T*S    EENTRO =        -0.11391037
  eigenvalues    EBANDS =     -3194.84486199
  atomic energy  EATOM  =     45086.50549395
  Solvation  Ediel_sol  =         0.00000000
  ---------------------------------------------------
  free energy    TOTEN  =      -178.23041097 eV

  energy without entropy =     -178.11650060  energy(sigma->0) =     -178.20193337


--------------------------------------------------------------------------------------------------------




--------------------------------------- Iteration      1(  12)  ---------------------------------------


    POTLOK:  cpu time   19.8871: real time   19.8899
    SETDIJ:  cpu time    0.1614: real time    0.1614
    EDDIAG:  cpu time  106.5430: real time  106.5474
  RMM-DIIS:  cpu time  303.9643: real time  303.9750
    ORTHCH:  cpu time   20.1301: real time   20.1304
       DOS:  cpu time    0.0019: real time    0.0019
    CHARGE:  cpu time   41.6579: real time   41.6586
    MIXING:  cpu time    1.0209: real time    1.0209
    --------------------------------------------
      LOOP:  cpu time  493.3666: real time  493.3855

 eigenvalue-minimisations  :   726
 total energy-change (2. order) : 0.6012883E+00  (-0.1393978E+00)
 number of electron     559.9999880 magnetization 
 augmentation part      241.5468141 magnetization 

 Broyden mixing:
  rms(total) = 0.16135E+01    rms(broyden)= 0.16132E+01
  rms(prec ) = 0.19211E+01
  weight for this iteration     100.00

 eigenvalues of (default mixing * dielectric matrix)
  average eigenvalue GAMMA=   0.3150
  1.0695  0.4001  0.3240  0.1304  0.1304  0.0753  0.0753

 Free energy of the ion-electron system (eV)
  ---------------------------------------------------
  alpha Z        PSCENC =        75.25431677
  Ewald energy   TEWEN  =    138791.59568003
  -Hartree energ DENC   =   -182778.40909977
  -exchange      EXHF   =         0.00000000
  -V(xc)+E(xc)   XCENC  =     -1695.22750074
  PAW double counting   =     46027.29360391   -42513.12748244
  entropy T*S    EENTRO =        -0.05793845
  eigenvalues    EBANDS =     -3171.45619592
  atomic energy  EATOM  =     45086.50549395
  Solvation  Ediel_sol  =         0.00000000
  ---------------------------------------------------
  free energy    TOTEN  =      -177.62912266 eV

  energy without entropy =     -177.57118420  energy(sigma->0) =     -177.61463805


--------------------------------------------------------------------------------------------------------




--------------------------------------- Iteration      1(  13)  ---------------------------------------


    POTLOK:  cpu time   18.2620: real time   18.2641
    SETDIJ:  cpu time    0.1556: real time    0.1556
    EDDIAG:  cpu time  104.7020: real time  104.7055
  RMM-DIIS:  cpu time  299.1083: real time  299.1209
    ORTHCH:  cpu time   21.9256: real time   21.9260
       DOS:  cpu time    0.0021: real time    0.0020
    CHARGE:  cpu time   41.0854: real time   41.0861
    MIXING:  cpu time    1.1263: real time    1.1263
    --------------------------------------------
      LOOP:  cpu time  486.3674: real time  486.3866

 eigenvalue-minimisations  :   724
 total energy-change (2. order) :-0.4810691E+00  (-0.1551074E+00)
 number of electron     559.9999913 magnetization 
 augmentation part      241.1588684 magnetization 

 Broyden mixing:
  rms(total) = 0.20032E+01    rms(broyden)= 0.20030E+01
  rms(prec ) = 0.23410E+01
  weight for this iteration     100.00

 eigenvalues of (default mixing * dielectric matrix)
  average eigenvalue GAMMA=   0.3193
  1.2276  0.5256  0.2886  0.1389  0.1389  0.0863  0.0863  0.0622

 Free energy of the ion-electron system (eV)
  ---------------------------------------------------
  alpha Z        PSCENC =        75.25431677
  Ewald energy   TEWEN  =    138791.59568003
  -Hartree energ DENC   =   -182823.05243746
  -exchange      EXHF   =         0.00000000
  -V(xc)+E(xc)   XCENC  =     -1694.74103721
  PAW double counting   =     46094.67794570   -42577.62544399
  entropy T*S    EENTRO =        -0.00808931
  eigenvalues    EBANDS =     -3130.71662025
  atomic energy  EATOM  =     45086.50549395
  Solvation  Ediel_sol  =         0.00000000
  ---------------------------------------------------
  free energy    TOTEN  =      -178.11019177 eV

  energy without entropy =     -178.10210246  energy(sigma->0) =     -178.10816944


--------------------------------------------------------------------------------------------------------




--------------------------------------- Iteration      1(  14)  ---------------------------------------


    POTLOK:  cpu time   17.6281: real time   17.6309
    SETDIJ:  cpu time    0.1546: real time    0.1546
    EDDIAG:  cpu time  105.9742: real time  105.9768
  RMM-DIIS:  cpu time  290.6576: real time  290.6673
    ORTHCH:  cpu time   20.1035: real time   20.1038
       DOS:  cpu time    0.0019: real time    0.0018
    CHARGE:  cpu time   38.3669: real time   38.3674
    MIXING:  cpu time    1.2056: real time    1.2056
    --------------------------------------------
      LOOP:  cpu time  474.0923: real time  474.1082

 eigenvalue-minimisations  :   713
 total energy-change (2. order) : 0.5343878E+00  (-0.1267214E+00)
 number of electron     559.9999877 magnetization 
 augmentation part      241.2263001 magnetization 

 Broyden mixing:
  rms(total) = 0.16487E+01    rms(broyden)= 0.16485E+01
  rms(prec ) = 0.19548E+01
  weight for this iteration     100.00

 eigenvalues of (default mixing * dielectric matrix)
  average eigenvalue GAMMA=   0.3175
  1.3600  0.6172  0.2431  0.1399  0.1399  0.1121  0.1121  0.0732  0.0601

 Free energy of the ion-electron system (eV)
  ---------------------------------------------------
  alpha Z        PSCENC =        75.25431677
  Ewald energy   TEWEN  =    138791.59568003
  -Hartree energ DENC   =   -182848.36385322
  -exchange      EXHF   =         0.00000000
  -V(xc)+E(xc)   XCENC  =     -1694.34019784
  PAW double counting   =     46144.65754138   -42625.41943361
  entropy T*S    EENTRO =        -0.12888388
  eigenvalues    EBANDS =     -3107.33646753
  atomic energy  EATOM  =     45086.50549395
  Solvation  Ediel_sol  =         0.00000000
  ---------------------------------------------------
  free energy    TOTEN  =      -177.57580394 eV

  energy without entropy =     -177.44692006  energy(sigma->0) =     -177.54358297


--------------------------------------------------------------------------------------------------------




--------------------------------------- Iteration      1(  15)  ---------------------------------------


    POTLOK:  cpu time   19.7417: real time   19.7450
    SETDIJ:  cpu time    0.1616: real time    0.1616
    EDDIAG:  cpu time  104.6582: real time  104.6622
  RMM-DIIS:  cpu time  298.0762: real time  298.0873
    ORTHCH:  cpu time   20.1271: real time   20.1273
       DOS:  cpu time    0.0018: real time    0.0018
    CHARGE:  cpu time   37.1733: real time   37.1738
    MIXING:  cpu time    1.1480: real time    1.1480
    --------------------------------------------
      LOOP:  cpu time  481.0878: real time  481.1070

 eigenvalue-minimisations  :   719
 total energy-change (2. order) : 0.4872685E+00  (-0.8807024E-01)
 number of electron     559.9999880 magnetization 
 augmentation part      241.1959902 magnetization 

 Broyden mixing:
  rms(total) = 0.14974E+01    rms(broyden)= 0.14971E+01
  rms(prec ) = 0.17933E+01
  weight for this iteration     100.00

 eigenvalues of (default mixing * dielectric matrix)
  average eigenvalue GAMMA=   0.3102
  1.4252  0.6597  0.2356  0.2356  0.1216  0.1216  0.0916  0.0916  0.0597  0.0597

 Free energy of the ion-electron system (eV)
  ---------------------------------------------------
  alpha Z        PSCENC =        75.25431677
  Ewald energy   TEWEN  =    138791.59568003
  -Hartree energ DENC   =   -182870.52790114
  -exchange      EXHF   =         0.00000000
  -V(xc)+E(xc)   XCENC  =     -1693.99736779
  PAW double counting   =     46184.42172197   -42663.41137419
  entropy T*S    EENTRO =         0.04200436
  eigenvalues    EBANDS =     -3086.97110942
  atomic energy  EATOM  =     45086.50549395
  Solvation  Ediel_sol  =         0.00000000
  ---------------------------------------------------
  free energy    TOTEN  =      -177.08853546 eV

  energy without entropy =     -177.13053982  energy(sigma->0) =     -177.09903655


--------------------------------------------------------------------------------------------------------




--------------------------------------- Iteration      1(  16)  ---------------------------------------


    POTLOK:  cpu time   17.6945: real time   17.6963
    SETDIJ:  cpu time    0.1532: real time    0.1532
    EDDIAG:  cpu time  104.9740: real time  104.9840
  RMM-DIIS:  cpu time  278.8847: real time  278.8914
    ORTHCH:  cpu time   20.6442: real time   20.6442
       DOS:  cpu time    0.0020: real time    0.0020
    CHARGE:  cpu time   40.0165: real time   40.0165
    MIXING:  cpu time    1.2853: real time    1.2853
    --------------------------------------------
      LOOP:  cpu time  463.6544: real time  463.6729

 eigenvalue-minimisations  :   710
 total energy-change (2. order) : 0.7111229E+00  (-0.5304755E-01)
 number of electron     559.9999876 magnetization 
 augmentation part      241.2453521 magnetization 

 Broyden mixing:
  rms(total) = 0.10133E+01    rms(broyden)= 0.10129E+01
  rms(prec ) = 0.11838E+01
  weight for this iteration     100.00

 eigenvalues of (default mixing * dielectric matrix)
  average eigenvalue GAMMA=   0.3240
  1.5496  0.7384  0.3090  0.3090  0.1319  0.1319  0.1001  0.1001  0.0832  0.0554
  0.0554

 Free energy of the ion-electron system (eV)
  ---------------------------------------------------
  alpha Z        PSCENC =        75.25431677
  Ewald energy   TEWEN  =    138791.59568003
  -Hartree energ DENC   =   -182885.09447884
  -exchange      EXHF   =         0.00000000
  -V(xc)+E(xc)   XCENC  =     -1693.82548130
  PAW double counting   =     46203.68353243   -42681.75133876
  entropy T*S    EENTRO =         0.00292107
  eigenvalues    EBANDS =     -3072.74805794
  atomic energy  EATOM  =     45086.50549395
  Solvation  Ediel_sol  =         0.00000000
  ---------------------------------------------------
  free energy    TOTEN  =      -176.37741260 eV

  energy without entropy =     -176.38033367  energy(sigma->0) =     -176.37814287


--------------------------------------------------------------------------------------------------------




--------------------------------------- Iteration      1(  17)  ---------------------------------------


    POTLOK:  cpu time   19.7816: real time   19.7835
    SETDIJ:  cpu time    0.1729: real time    0.1729
    EDDIAG:  cpu time  106.0091: real time  106.0115
  RMM-DIIS:  cpu time  269.9239: real time  269.9293
    ORTHCH:  cpu time   20.1529: real time   20.1529
       DOS:  cpu time    0.0020: real time    0.0020
    CHARGE:  cpu time   37.1786: real time   37.1785
    MIXING:  cpu time    1.2849: real time    1.2849
    --------------------------------------------
      LOOP:  cpu time  454.5058: real time  454.5155

 eigenvalue-minimisations  :   697
 total energy-change (2. order) : 0.1479715E+00  (-0.5220319E-01)
 number of electron     559.9999895 magnetization 
 augmentation part      241.3262586 magnetization 

 Broyden mixing:
  rms(total) = 0.10199E+01    rms(broyden)= 0.10197E+01
  rms(prec ) = 0.11787E+01
  weight for this iteration     100.00

 eigenvalues of (default mixing * dielectric matrix)
  average eigenvalue GAMMA=   0.3289
  1.6174  0.8527  0.3534  0.3534  0.1371  0.1371  0.1090  0.1090  0.0851  0.0851
  0.0541  0.0541

 Free energy of the ion-electron system (eV)
  ---------------------------------------------------
  alpha Z        PSCENC =        75.25431677
  Ewald energy   TEWEN  =    138791.59568003
  -Hartree energ DENC   =   -182903.08949670
  -exchange      EXHF   =         0.00000000
  -V(xc)+E(xc)   XCENC  =     -1693.54863249
  PAW double counting   =     46229.29997509   -42705.90468501
  entropy T*S    EENTRO =         0.02701298
  eigenvalues    EBANDS =     -3056.36910567
  atomic energy  EATOM  =     45086.50549395
  Solvation  Ediel_sol  =         0.00000000
  ---------------------------------------------------
  free energy    TOTEN  =      -176.22944106 eV

  energy without entropy =     -176.25645403  energy(sigma->0) =     -176.23619430


--------------------------------------------------------------------------------------------------------




--------------------------------------- Iteration      1(  18)  ---------------------------------------


    POTLOK:  cpu time   17.6608: real time   17.6622
    SETDIJ:  cpu time    0.1516: real time    0.1516
    EDDIAG:  cpu time  104.3691: real time  104.3700
  RMM-DIIS:  cpu time  284.8076: real time  284.8125
    ORTHCH:  cpu time   20.0773: real time   20.0773
       DOS:  cpu time    0.0020: real time    0.0020
    CHARGE:  cpu time   37.0385: real time   37.0385
    MIXING:  cpu time    1.3271: real time    1.3271
    --------------------------------------------
      LOOP:  cpu time  465.4340: real time  465.4411

 eigenvalue-minimisations  :   702
 total energy-change (2. order) : 0.4376787E-01  (-0.3540848E-01)
 number of electron     559.9999894 magnetization 
 augmentation part      241.2281415 magnetization 

 Broyden mixing:
  rms(total) = 0.10944E+01    rms(broyden)= 0.10942E+01
  rms(prec ) = 0.12937E+01
  weight for this iteration     100.00

 eigenvalues of (default mixing * dielectric matrix)
  average eigenvalue GAMMA=   0.3459
  1.7935  1.0299  0.3885  0.3885  0.1411  0.1411  0.1298  0.1298  0.0880  0.0880
  0.0715  0.0536  0.0536

 Free energy of the ion-electron system (eV)
  ---------------------------------------------------
  alpha Z        PSCENC =        75.25431677
  Ewald energy   TEWEN  =    138791.59568003
  -Hartree energ DENC   =   -182926.63751183
  -exchange      EXHF   =         0.00000000
  -V(xc)+E(xc)   XCENC  =     -1693.31951106
  PAW double counting   =     46247.37669159   -42722.75882428
  entropy T*S    EENTRO =        -0.05661247
  eigenvalues    EBANDS =     -3034.14539589
  atomic energy  EATOM  =     45086.50549395
  Solvation  Ediel_sol  =         0.00000000
  ---------------------------------------------------
  free energy    TOTEN  =      -176.18567318 eV

  energy without entropy =     -176.12906071  energy(sigma->0) =     -176.17152007


--------------------------------------------------------------------------------------------------------




--------------------------------------- Iteration      1(  19)  ---------------------------------------


    POTLOK:  cpu time   17.7375: real time   17.7394
    SETDIJ:  cpu time    0.1532: real time    0.1532
    EDDIAG:  cpu time   99.7261: real time   99.7272
  RMM-DIIS:  cpu time  271.4186: real time  271.4223
    ORTHCH:  cpu time   21.1648: real time   21.1648
       DOS:  cpu time    0.0020: real time    0.0020
    CHARGE:  cpu time   40.8933: real time   40.8933
    MIXING:  cpu time    1.6390: real time    1.6390
    --------------------------------------------
      LOOP:  cpu time  452.7346: real time  452.7412

 eigenvalue-minimisations  :   697
 total energy-change (2. order) : 0.1508084E+00  (-0.4119342E-01)
 number of electron     559.9999890 magnetization 
 augmentation part      241.1544870 magnetization 

 Broyden mixing:
  rms(total) = 0.83661E+00    rms(broyden)= 0.83632E+00
  rms(prec ) = 0.95156E+00
  weight for this iteration     100.00

 eigenvalues of (default mixing * dielectric matrix)
  average eigenvalue GAMMA=   0.3516
  1.9644  1.1276  0.3821  0.3821  0.1938  0.1337  0.1337  0.1464  0.1016  0.1016
  0.0854  0.0630  0.0534  0.0534

 Free energy of the ion-electron system (eV)
  ---------------------------------------------------
  alpha Z        PSCENC =        75.25431677
  Ewald energy   TEWEN  =    138791.59568003
  -Hartree energ DENC   =   -182956.02946971
  -exchange      EXHF   =         0.00000000
  -V(xc)+E(xc)   XCENC  =     -1692.96604087
  PAW double counting   =     46269.60802099   -42743.29109536
  entropy T*S    EENTRO =        -0.07688627
  eigenvalues    EBANDS =     -3006.63488432
  atomic energy  EATOM  =     45086.50549395
  Solvation  Ediel_sol  =         0.00000000
  ---------------------------------------------------
  free energy    TOTEN  =      -176.03486478 eV

  energy without entropy =     -175.95797851  energy(sigma->0) =     -176.01564322


--------------------------------------------------------------------------------------------------------




--------------------------------------- Iteration      1(  20)  ---------------------------------------


    POTLOK:  cpu time   19.2534: real time   19.2552
    SETDIJ:  cpu time    0.1620: real time    0.1620
    EDDIAG:  cpu time  106.9578: real time  106.9590
  RMM-DIIS:  cpu time  286.1808: real time  286.1845
    ORTHCH:  cpu time   21.7030: real time   21.7030
       DOS:  cpu time    0.0020: real time    0.0020
    CHARGE:  cpu time   39.2970: real time   39.2970
    MIXING:  cpu time    1.7090: real time    1.7090
    --------------------------------------------
      LOOP:  cpu time  475.2650: real time  475.2717

 eigenvalue-minimisations  :   700
 total energy-change (2. order) : 0.2629455E+00  (-0.2916231E-01)
 number of electron     559.9999889 magnetization 
 augmentation part      241.0738247 magnetization 

 Broyden mixing:
  rms(total) = 0.55073E+00    rms(broyden)= 0.55048E+00
  rms(prec ) = 0.61935E+00
  weight for this iteration     100.00

 eigenvalues of (default mixing * dielectric matrix)
  average eigenvalue GAMMA=   0.3652
  2.1243  1.1775  0.5717  0.3180  0.3180  0.1358  0.1358  0.1225  0.1225  0.0962
  0.0962  0.0885  0.0644  0.0536  0.0536

 Free energy of the ion-electron system (eV)
  ---------------------------------------------------
  alpha Z        PSCENC =        75.25431677
  Ewald energy   TEWEN  =    138791.59568003
  -Hartree energ DENC   =   -182980.68674435
  -exchange      EXHF   =         0.00000000
  -V(xc)+E(xc)   XCENC  =     -1692.68354423
  PAW double counting   =     46283.98044011   -42756.42408521
  entropy T*S    EENTRO =        -0.09099541
  eigenvalues    EBANDS =     -2983.22248095
  atomic energy  EATOM  =     45086.50549395
  Solvation  Ediel_sol  =         0.00000000
  ---------------------------------------------------
  free energy    TOTEN  =      -175.77191930 eV

  energy without entropy =     -175.68092389  energy(sigma->0) =     -175.74917044


--------------------------------------------------------------------------------------------------------




--------------------------------------- Iteration      1(  21)  ---------------------------------------


    POTLOK:  cpu time   19.6180: real time   19.6194
    SETDIJ:  cpu time    0.1584: real time    0.1584
    EDDIAG:  cpu time  105.1187: real time  105.1210
  RMM-DIIS:  cpu time  287.9111: real time  287.9157
    ORTHCH:  cpu time   21.9066: real time   21.9066
       DOS:  cpu time    0.0021: real time    0.0020
    CHARGE:  cpu time   39.6679: real time   39.6680
    MIXING:  cpu time    1.9361: real time    1.9361
    --------------------------------------------
      LOOP:  cpu time  476.3189: real time  476.3273

 eigenvalue-minimisations  :   695
 total energy-change (2. order) : 0.1975045E-01  (-0.2005410E-01)
 number of electron     559.9999879 magnetization 
 augmentation part      241.0539282 magnetization 

 Broyden mixing:
  rms(total) = 0.65308E+00    rms(broyden)= 0.65293E+00
  rms(prec ) = 0.75782E+00
  weight for this iteration     100.00

 eigenvalues of (default mixing * dielectric matrix)
  average eigenvalue GAMMA=   0.3694
  2.1970  1.2468  0.6604  0.3565  0.3565  0.1358  0.1358  0.1303  0.1303  0.1296
  0.0938  0.0938  0.0746  0.0631  0.0534  0.0534

 Free energy of the ion-electron system (eV)
  ---------------------------------------------------
  alpha Z        PSCENC =        75.25431677
  Ewald energy   TEWEN  =    138791.59568003
  -Hartree energ DENC   =   -182997.71110700
  -exchange      EXHF   =         0.00000000
  -V(xc)+E(xc)   XCENC  =     -1692.47388032
  PAW double counting   =     46288.92334642   -42760.51914908
  entropy T*S    EENTRO =        -0.04337790
  eigenvalues    EBANDS =     -2967.28349171
  atomic energy  EATOM  =     45086.50549395
  Solvation  Ediel_sol  =         0.00000000
  ---------------------------------------------------
  free energy    TOTEN  =      -175.75216885 eV

  energy without entropy =     -175.70879094  energy(sigma->0) =     -175.74132437


--------------------------------------------------------------------------------------------------------




--------------------------------------- Iteration      1(  22)  ---------------------------------------


    POTLOK:  cpu time   19.2342: real time   19.2365
    SETDIJ:  cpu time    0.1612: real time    0.1612
    EDDIAG:  cpu time  106.1301: real time  106.1314
  RMM-DIIS:  cpu time  290.0457: real time  290.0499
    ORTHCH:  cpu time   21.6544: real time   21.6544
       DOS:  cpu time    0.0021: real time    0.0021
    CHARGE:  cpu time   38.8506: real time   38.8506
    MIXING:  cpu time    1.9680: real time    1.9680
    --------------------------------------------
      LOOP:  cpu time  478.0463: real time  478.0541

 eigenvalue-minimisations  :   700
 total energy-change (2. order) : 0.8105901E-01  (-0.1216876E-01)
 number of electron     559.9999885 magnetization 
 augmentation part      241.0286874 magnetization 

 Broyden mixing:
  rms(total) = 0.56908E+00    rms(broyden)= 0.56894E+00
  rms(prec ) = 0.69045E+00
  weight for this iteration     100.00

 eigenvalues of (default mixing * dielectric matrix)
  average eigenvalue GAMMA=   0.3655
  2.2169  1.3033  0.6822  0.3785  0.3785  0.1974  0.1341  0.1341  0.1414  0.1164
  0.1164  0.0881  0.0881  0.0653  0.0653  0.0535  0.0535

 Free energy of the ion-electron system (eV)
  ---------------------------------------------------
  alpha Z        PSCENC =        75.25431677
  Ewald energy   TEWEN  =    138791.59568003
  -Hartree energ DENC   =   -183010.74330165
  -exchange      EXHF   =         0.00000000
  -V(xc)+E(xc)   XCENC  =     -1692.32456680
  PAW double counting   =     46287.61499261   -42758.74611017
  entropy T*S    EENTRO =        -0.06305856
  eigenvalues    EBANDS =     -2954.76455601
  atomic energy  EATOM  =     45086.50549395
  Solvation  Ediel_sol  =         0.00000000
  ---------------------------------------------------
  free energy    TOTEN  =      -175.67110984 eV

  energy without entropy =     -175.60805127  energy(sigma->0) =     -175.65534520


--------------------------------------------------------------------------------------------------------




--------------------------------------- Iteration      1(  23)  ---------------------------------------


    POTLOK:  cpu time   20.2855: real time   20.2873
    SETDIJ:  cpu time    0.1644: real time    0.1644
    EDDIAG:  cpu time  105.8945: real time  105.8973
  RMM-DIIS:  cpu time  288.4264: real time  288.4313
    ORTHCH:  cpu time   19.9930: real time   19.9931
       DOS:  cpu time    0.0020: real time    0.0020
    CHARGE:  cpu time   40.9664: real time   40.9668
    MIXING:  cpu time    2.1247: real time    2.1247
    --------------------------------------------
      LOOP:  cpu time  477.8568: real time  477.8668

 eigenvalue-minimisations  :   697
 total energy-change (2. order) : 0.9029506E-01  (-0.8509240E-02)
 number of electron     559.9999893 magnetization 
 augmentation part      241.0426842 magnetization 

 Broyden mixing:
  rms(total) = 0.34702E+00    rms(broyden)= 0.34688E+00
  rms(prec ) = 0.39779E+00
  weight for this iteration     100.00

 eigenvalues of (default mixing * dielectric matrix)
  average eigenvalue GAMMA=   0.3733
[...]
 -0.007  -0.012   0.004   0.004   0.006  -0.007  -0.012   0.004
 -0.012  -0.021   0.007   0.008   0.010  -0.011  -0.020   0.007
 -0.015  -0.005   0.012   0.000   0.022  -0.014  -0.005   0.012
  0.000  -0.022  -0.006  -0.015  -0.000   0.000  -0.022  -0.006
 -0.022   0.000   0.009  -0.005  -0.016  -0.021   0.000   0.008
 -0.018  -0.006   0.015   0.000   0.026  -0.017  -0.006   0.014
  0.000  -0.027  -0.008  -0.018  -0.000   0.000  -0.026  -0.007
 -0.026   0.000   0.010  -0.006  -0.019  -0.026   0.000   0.010
 total augmentation occupancy for first ion, spin component:           1
  1.544  -0.025   0.005   0.018   0.023   0.073  -0.009  -0.002   0.035  -0.011   0.096  -0.033   0.011   0.002   0.002  -0.019
 -0.025   1.413   0.027   0.072   0.001  -0.008   0.066   0.011  -0.014  -0.009   0.220  -0.066   0.018   0.002   0.002  -0.006
  0.005   0.027   1.543  -0.005   0.000  -0.002   0.013   0.074  -0.011   0.018  -0.054   0.019  -0.004  -0.005  -0.005   0.016
  0.018   0.072  -0.005   1.335   0.039   0.033  -0.014  -0.011   0.092  -0.021  -0.086   0.022  -0.001  -0.008  -0.003   0.001
  0.023   0.001   0.000   0.039   1.442  -0.011  -0.010   0.017  -0.020   0.066  -0.097   0.033  -0.004  -0.008  -0.008   0.026
  0.073  -0.008  -0.002   0.033  -0.011   0.216   0.019  -0.002  -0.045   0.004  -0.048   0.002   0.017  -0.010   0.035  -0.004
 -0.009   0.066   0.013  -0.014  -0.010   0.019   0.263  -0.023  -0.003   0.006  -0.109   0.007  -0.001   0.051  -0.010  -0.000
 -0.002   0.011   0.074  -0.011   0.017  -0.002  -0.023   0.213   0.013  -0.020   0.028  -0.001  -0.012   0.009  -0.018   0.003
  0.035  -0.014  -0.011   0.092  -0.020  -0.045  -0.003   0.013   0.258   0.006   0.044  -0.003  -0.009   0.036   0.004   0.000
 -0.011  -0.009   0.018  -0.021   0.066   0.004   0.006  -0.020   0.006   0.257   0.046  -0.002  -0.038   0.002   0.049   0.007
  0.096   0.220  -0.054  -0.086  -0.097  -0.048  -0.109   0.028   0.044   0.046   0.950  -0.141   0.083   0.014   0.064  -0.013
 -0.033  -0.066   0.019   0.022   0.033   0.002   0.007  -0.001  -0.003  -0.002  -0.141   0.023  -0.014  -0.003  -0.010   0.003
  0.011   0.018  -0.004  -0.001  -0.004   0.017  -0.001  -0.012  -0.009  -0.038   0.083  -0.014   0.029  -0.009  -0.004  -0.003
  0.002   0.002  -0.005  -0.008  -0.008  -0.010   0.051   0.009   0.036   0.002   0.014  -0.003  -0.009   0.036   0.005   0.000
  0.002   0.002  -0.005  -0.003  -0.008   0.035  -0.010  -0.018   0.004   0.049   0.064  -0.010  -0.004   0.005   0.035  -0.000
 -0.019  -0.006   0.016   0.001   0.026  -0.004  -0.000   0.003   0.000   0.007  -0.013   0.003  -0.003   0.000  -0.000   0.001
  0.001  -0.028  -0.007  -0.018   0.001   0.001  -0.008  -0.002  -0.006  -0.000  -0.003   0.001   0.000  -0.003  -0.000   0.000
 -0.028   0.001   0.012  -0.006  -0.020  -0.006   0.001   0.003  -0.001  -0.007  -0.008   0.001  -0.000  -0.000  -0.003   0.000


------------------------ aborting loop because EDIFF is reached ----------------------------------------


    CHARGE:  cpu time   27.9760: real time   27.9765
    FORLOC:  cpu time    7.1049: real time    7.1050
    FORNL :  cpu time   72.6048: real time   72.6058
    STRESS:  cpu time  216.5536: real time  216.5563
    FORCOR:  cpu time   21.4388: real time   21.4391
    FORHAR:  cpu time    9.8519: real time    9.8521
    MIXING:  cpu time    3.4090: real time    3.4090
    OFIELD:  cpu time    0.0000: real time    0.0000

  FORCE on cell =-STRESS in cart. coord.  units (eV):
  Direction    XX          YY          ZZ          XY          YZ          ZX
  --------------------------------------------------------------------------------------
  Alpha Z    75.25432    75.25432    75.25432
  Ewald   44713.71232 47463.34607 46614.43153  -724.86464 -1889.87538   838.22054
  Hartree 59608.81467 62197.34417 61336.62869  -677.11155 -1747.28419   754.66350
  E(xc)   -2906.09067 -2905.28289 -2905.00603    -0.29000    -0.54128     0.32009
  Local  ************************************  1394.66540  3622.78961 -1586.44411
  n-local  -883.04378  -886.21448  -880.35750     1.26395     1.85301    -0.24560
  augment  4105.48799  4105.02348  4100.05298     0.57690     0.22987    -0.47434
  Kinetic  7816.12267  7807.06210  7799.81694     4.57105     8.07548    -4.46485
  Fock        0.00000     0.00000     0.00000     0.00000     0.00000     0.00000
  -------------------------------------------------------------------------------------
  Total    -114.35142  -110.05176  -109.35724    -1.18888    -4.75286     1.57523
  in kB      -6.78560    -6.53046    -6.48925    -0.07055    -0.28203     0.09347
  external pressure =       -6.60 kB  Pullay stress =        0.00 kB


 VOLUME and BASIS-vectors are now :
 -----------------------------------------------------------------------------
  energy-cutoff  :      400.00
  volume of cell :    27000.00
      direct lattice vectors                 reciprocal lattice vectors
    30.000000000  0.000000000  0.000000000     0.033333333  0.000000000  0.000000000
     0.000000000 30.000000000  0.000000000     0.000000000  0.033333333  0.000000000
     0.000000000  0.000000000 30.000000000     0.000000000  0.000000000  0.033333333

  length of vectors
    30.000000000 30.000000000 30.000000000     0.033333333  0.033333333  0.033333333


 FORCES acting on ions
    electron-ion (+dipol)            ewald-force                    non-local-force                 convergence-correction
 -----------------------------------------------------------------------------------------------
   0.403E+03 0.969E+03 0.433E+03   -.400E+03 -.966E+03 -.433E+03   -.151E+01 -.183E+01 -.234E+00   0.197E-03 0.151E-02 0.131E-02
   -.973E+03 -.401E+03 0.423E+03   0.970E+03 0.398E+03 -.422E+03   0.181E+01 0.151E+01 -.193E+00   0.161E-02 -.160E-02 0.482E-02
   -.392E+03 0.968E+03 0.440E+03   0.390E+03 -.966E+03 -.440E+03   0.150E+01 -.182E+01 -.283E+00   -.229E-02 0.151E-02 0.285E-02
   0.974E+03 -.398E+03 0.420E+03   -.971E+03 0.395E+03 -.419E+03   -.182E+01 0.152E+01 -.229E+00   -.681E-03 -.389E-02 0.102E-02
   0.267E+01 0.583E+03 0.974E+03   -.266E+01 -.582E+03 -.971E+03   -.570E-02 -.313E+00 -.235E+01   -.201E-02 0.264E-03 0.805E-03
   0.120E+03 0.465E+03 -.970E+03   -.120E+03 -.466E+03 0.967E+03   -.322E+00 0.239E+00 0.192E+01   0.285E-02 0.278E-02 -.475E-02
   0.188E+02 0.114E+04 0.442E+02   -.187E+02 -.114E+04 -.442E+02   -.683E-01 -.328E+01 -.727E-02   0.374E-03 0.341E-02 0.212E-02
   0.114E+04 -.455E+01 0.393E+01   -.113E+04 0.457E+01 -.395E+01   -.311E+01 -.863E-02 0.102E-01   0.474E-03 -.294E-02 0.180E-02
   -.114E+04 -.109E+02 0.934E+01   0.114E+04 0.109E+02 -.934E+01   0.309E+01 -.170E-01 -.125E-01   -.238E-02 -.276E-02 0.328E-02
   0.117E+01 -.114E+04 0.265E+01   -.116E+01 0.113E+04 -.264E+01   -.311E-04 0.311E+01 -.503E-02   -.891E-03 0.899E-03 0.208E-02
   -.579E+03 0.574E+03 0.823E+03   0.577E+03 -.572E+03 -.820E+03   0.155E+01 -.157E+01 -.219E+01   -.465E-02 -.261E-02 0.116E-02
   -.685E+03 0.407E+03 -.814E+03   0.681E+03 -.406E+03 0.811E+03   0.212E+01 -.436E+00 0.208E+01   -.273E-02 0.281E-02 -.497E-02
   0.580E+03 -.581E+03 0.815E+03   -.577E+03 0.578E+03 -.811E+03   -.155E+01 0.157E+01 -.220E+01   0.419E-03 -.309E-02 -.561E-03
   0.583E+03 -.586E+03 -.811E+03   -.581E+03 0.584E+03 0.808E+03   -.156E+01 0.154E+01 0.220E+01   0.188E-02 -.156E-02 -.221E-03
   0.582E+03 0.575E+03 0.819E+03   -.580E+03 -.573E+03 -.816E+03   -.155E+01 -.157E+01 -.220E+01   0.168E-02 -.185E-02 -.169E-03
   0.615E+03 0.562E+03 -.811E+03   -.612E+03 -.559E+03 0.808E+03   -.159E+01 -.162E+01 0.221E+01   0.383E-02 -.116E-02 -.309E-02
   -.578E+03 -.581E+03 0.816E+03   0.576E+03 0.579E+03 -.812E+03   0.155E+01 0.156E+01 -.220E+01   0.200E-02 -.134E-02 -.148E-02
   -.580E+03 -.592E+03 -.811E+03   0.577E+03 0.590E+03 0.808E+03   0.153E+01 0.154E+01 0.218E+01   -.120E-02 -.426E-02 0.229E-02
   0.457E+03 0.963E+03 -.377E+03   -.455E+03 -.960E+03 0.376E+03   -.136E+01 -.181E+01 0.306E+00   0.248E-02 0.447E-02 -.796E-03
   -.978E+03 -.410E+03 -.410E+03   0.975E+03 0.408E+03 0.410E+03   0.183E+01 0.155E+01 0.203E+00   -.210E-02 -.845E-02 -.787E-03
   -.320E+03 0.311E+03 0.469E+03   0.320E+03 -.312E+03 -.470E+03   -.371E+00 0.365E+00 0.501E+00   -.324E-02 -.151E-02 0.503E-02
   0.977E+03 0.390E+03 0.422E+03   -.974E+03 -.388E+03 -.422E+03   -.181E+01 -.153E+01 -.193E+00   0.175E-02 -.420E-02 0.989E-03
   -.393E+03 -.974E+03 0.419E+03   0.391E+03 0.972E+03 -.419E+03   0.150E+01 0.183E+01 -.225E+00   0.906E-03 -.194E-02 0.163E-03
   -.353E+03 0.935E+03 -.152E+03   0.351E+03 -.933E+03 0.157E+03   0.469E+00 -.913E+00 -.552E+01   -.423E-04 0.574E-02 0.606E-03
   0.978E+03 -.401E+03 -.413E+03   -.975E+03 0.399E+03 0.413E+03   -.182E+01 0.149E+01 0.226E+00   0.215E-03 -.316E-02 -.253E-03
   -.976E+03 0.386E+03 0.429E+03   0.973E+03 -.384E+03 -.428E+03   0.182E+01 -.151E+01 -.208E+00   -.136E-02 0.366E-03 0.787E-02
   0.395E+03 -.974E+03 0.419E+03   -.393E+03 0.971E+03 -.418E+03   -.151E+01 0.182E+01 -.226E+00   -.630E-03 -.771E-03 0.114E-02
   0.327E+03 0.314E+03 0.465E+03   -.328E+03 -.314E+03 -.466E+03   0.379E+00 0.351E+00 0.547E+00   0.211E-02 -.331E-02 0.486E-03
   0.162E+02 0.621E+03 0.379E+02   -.161E+02 -.622E+03 -.380E+02   -.590E-01 0.872E+00 -.178E-01   0.154E-02 0.100E-02 0.557E-02
   -.587E+03 -.494E+01 0.971E+03   0.586E+03 0.494E+01 -.967E+03   0.293E+00 -.263E-02 -.235E+01   -.341E-02 -.378E-03 0.116E-02
   -.596E+03 -.392E+02 -.964E+03   0.596E+03 0.393E+02 0.960E+03   0.290E+00 0.137E-02 0.243E+01   -.337E-02 -.661E-02 -.285E-02
   0.589E+03 -.355E+01 0.968E+03   -.588E+03 0.352E+01 -.965E+03   -.308E+00 0.164E-01 -.237E+01   0.229E-02 -.549E-02 -.623E-03
   0.601E+03 -.151E+02 -.963E+03   -.600E+03 0.151E+02 0.960E+03   -.343E+00 0.360E-01 0.234E+01   0.408E-02 -.428E-02 -.316E-02
   0.776E+03 0.753E+03 0.146E+02   -.774E+03 -.751E+03 -.146E+02   -.118E+01 -.112E+01 -.420E-01   0.199E-02 -.136E-02 0.303E-02
   -.761E+03 -.769E+03 0.538E+01   0.759E+03 0.767E+03 -.540E+01   0.116E+01 0.114E+01 0.185E-01   0.126E-02 -.619E-02 0.133E-02
   -.773E+03 0.741E+03 0.415E+02   0.771E+03 -.739E+03 -.416E+02   0.122E+01 -.118E+01 0.501E-01   -.324E-02 0.270E-02 0.694E-02
   0.764E+03 -.766E+03 0.370E+01   -.762E+03 0.764E+03 -.369E+01   -.114E+01 0.115E+01 -.371E-02   0.767E-03 -.328E-02 0.235E-02
   0.175E+01 -.465E+01 0.107E+04   -.175E+01 0.465E+01 -.107E+04   0.164E-02 0.263E-02 -.161E+01   -.117E-02 -.436E-02 0.533E-03
   0.132E+02 -.363E+02 -.107E+04   -.132E+02 0.364E+02 0.107E+04   0.273E-01 -.139E-01 0.166E+01   0.386E-02 -.515E-02 -.400E-02
   0.985E+03 0.385E+03 -.411E+03   -.982E+03 -.383E+03 0.410E+03   -.184E+01 -.149E+01 0.217E+00   0.368E-02 -.379E-02 -.175E-02
   -.393E+03 -.978E+03 -.413E+03   0.391E+03 0.975E+03 0.413E+03   0.152E+01 0.180E+01 0.208E+00   -.258E-03 -.352E-02 0.274E-02
   -.316E+03 0.260E+03 -.417E+03   0.317E+03 -.260E+03 0.417E+03   -.375E+00 0.347E-01 -.338E+00   0.637E-03 -.189E-02 0.964E-03
   0.324E+03 -.327E+03 0.459E+03   -.324E+03 0.327E+03 -.460E+03   0.354E+00 -.362E+00 0.509E+00   0.341E-02 -.612E-02 0.162E-02
   0.346E+03 0.294E+03 -.437E+03   -.347E+03 -.294E+03 0.437E+03   0.392E+00 0.380E+00 -.573E+00   0.543E-02 -.318E-02 -.222E-03
   -.996E+03 0.362E+03 -.397E+03   0.993E+03 -.359E+03 0.397E+03   0.185E+01 -.158E+01 0.218E+00   -.538E-02 -.240E-02 -.764E-03
   0.397E+03 -.977E+03 -.414E+03   -.394E+03 0.974E+03 0.413E+03   -.151E+01 0.181E+01 0.208E+00   0.245E-03 -.234E-02 0.204E-02
   -.320E+03 -.328E+03 0.460E+03   0.321E+03 0.329E+03 -.461E+03   -.367E+00 -.378E+00 0.528E+00   -.127E-02 -.719E-02 0.331E-02
   0.647E+03 -.923E+01 0.793E+01   -.648E+03 0.927E+01 -.796E+01   0.742E+00 -.169E-01 0.140E-01   0.305E-02 -.574E-02 0.374E-02
   -.642E+03 -.178E+02 0.152E+02   0.643E+03 0.177E+02 -.152E+02   -.692E+00 0.367E-01 -.470E-01   -.151E-02 -.642E-02 0.563E-02
   0.108E+01 -.589E+03 0.967E+03   -.107E+01 0.589E+03 -.964E+03   -.934E-02 0.311E+00 -.236E+01   0.969E-03 -.493E-02 -.195E-02
   0.326E+01 -.599E+03 -.963E+03   -.327E+01 0.598E+03 0.960E+03   0.912E-02 0.290E+00 0.235E+01   0.146E-02 -.526E-02 0.101E-02
   0.618E+01 -.169E+02 0.145E+02   -.617E+01 0.169E+02 -.144E+02   -.143E-01 0.110E-01 -.139E-01   0.351E-02 -.537E-02 0.540E-02
   0.328E+03 -.335E+03 -.447E+03   -.329E+03 0.336E+03 0.448E+03   0.361E+00 -.366E+00 -.521E+00   0.458E-02 -.666E-02 0.613E-03
   -.320E+03 -.342E+03 -.446E+03   0.320E+03 0.342E+03 0.446E+03   -.372E+00 -.293E+00 -.521E+00   -.164E-02 -.101E-01 0.146E-02
   0.230E+01 -.647E+03 0.529E+01   -.229E+01 0.648E+03 -.530E+01   -.261E-02 -.740E+00 0.963E-02   -.176E-03 -.723E-02 0.301E-02
   -.665E+02 0.209E+03 -.207E+03   0.613E+02 -.194E+03 0.194E+03   0.384E+01 -.924E+01 0.864E+01   -.303E-03 0.251E-02 -.161E-02
   -.220E+03 0.647E+03 -.540E+03   0.238E+03 -.696E+03 0.582E+03   -.158E+02 0.436E+02 -.368E+02   -.379E-03 0.324E-02 -.214E-02
 -----------------------------------------------------------------------------------------------
   0.128E+02 -.364E+02 0.341E+02   0.341E-12 0.909E-12 -.114E-12   -.128E+02 0.365E+02 -.342E+02   0.192E-01 -.136E+00 0.561E-01
 
 
 POSITION                                       TOTAL-FORCE (eV/Angst)
 -----------------------------------------------------------------------------------
     13.37281      9.84801     12.50759         0.704730      1.104271      0.301427
     20.15199     16.62719     12.50759        -1.110417     -0.705826      0.279941
     16.62719      9.84801     12.50759        -0.709178      1.108458      0.298611
      9.84801     16.62719     12.50759         1.102729     -0.713760      0.302790
     15.00000     11.47521     10.20639         0.003344      0.414735      1.281117
     15.00000     11.47521     19.79360         0.502272     -0.187798     -1.312320
     15.00000      8.28283     15.00000         0.004762      1.520840     -0.025311
      8.28283     15.00000     15.00000         1.519207      0.001781     -0.004458
     21.71717     15.00000     15.00000        -1.515335      0.006085     -0.003536
     15.00000     21.71717     15.00000         0.000630     -1.517713      0.005108
     18.35858     11.64142     10.25025        -0.755543      0.763624      1.072396
     18.35858     11.64142     19.74975        -1.211296      0.171548     -1.129075
     11.64142     18.35858     10.25025         0.749446     -0.761312      1.070428
     11.64142     18.35858     19.74975         0.762126     -0.751785     -1.076376
     11.64142     11.64142     10.25025         0.755362      0.762373      1.072978
     11.64142     11.64142     19.74975         0.768482      0.774547     -1.075579
     18.35858     18.35858     10.25025        -0.752485     -0.758879      1.072106
     18.35858     18.35858     19.74975        -0.757888     -0.743215     -1.073238
     13.37281      9.84801     17.49241         0.591539      1.112911     -0.361762
     20.15199     16.62719     17.49241        -1.106197     -0.730826     -0.272669
     16.73751     13.26249     12.54279         0.113948     -0.120805     -0.155797
      9.84801     13.37281     12.50759         1.106198      0.716134      0.280644
     16.62719     20.15199     12.50759        -0.703539     -1.105565      0.290004
     16.62719      9.84801     17.49241        -0.854925      1.121167     -0.459051
      9.84801     16.62719     17.49241         1.109648     -0.700981     -0.292332
     20.15199     13.37281     12.50759        -1.110025      0.720324      0.274321
     13.37281     20.15199     12.50759         0.709478     -1.104284      0.295386
     13.26249     13.26249     12.54279        -0.127447     -0.098115     -0.175708
     15.00000     11.52498     15.00000        -0.013989     -0.203580     -0.045776
     18.52479     15.00000     10.20639        -0.409583     -0.001022      1.283204
     18.52479     15.00000     19.79360        -0.383105      0.094085     -1.302314
     11.47521     15.00000     10.20640         0.413306     -0.015150      1.283904
     11.47521     15.00000     19.79360         0.412925     -0.005945     -1.282817
     11.49535     11.49535     15.00000         0.832326      0.821241      0.013806
     18.50465     18.50465     15.00000        -0.833847     -0.828954     -0.003966
     18.50465     11.49535     15.00000        -0.802238      0.858184     -0.072658
     11.49535     18.50465     15.00000         0.827554     -0.826680      0.002372
     15.00000     15.00000     10.04368         0.002032      0.000228      1.176314
     15.00000     15.00000     19.95633        -0.016569      0.046431     -1.177198
      9.84801     13.37281     17.49241         1.111958      0.694508     -0.286494
     16.62719     20.15199     17.49241        -0.714574     -1.101368     -0.291137
     16.73751     13.26249     17.45721         0.099959      0.019005      0.077116
     13.26249     16.73751     12.54279        -0.109500      0.114319     -0.157732
     13.26249     13.26249     17.45721        -0.133378     -0.091625      0.135030
     20.15199     13.37281     17.49241        -1.065378      0.774415     -0.325631
     13.37281     20.15199     17.49241         0.706460     -1.108562     -0.285768
     16.73751     16.73751     12.54279         0.108254      0.102891     -0.153166
     11.52498     15.00000     15.00000        -0.234763      0.010373     -0.012149
     18.47502     15.00000     15.00000         0.228968      0.001959      0.008280
     15.00000     18.52480     10.20639         0.006891     -0.413074      1.282712
     15.00000     18.52480     19.79360        -0.004281     -0.401604     -1.292243
     15.00000     15.00000     15.00000         0.000181     -0.009867      0.011552
     13.26249     16.73751     17.45721        -0.113080      0.110746      0.162236
     16.73751     16.73751     17.45721         0.113388      0.109997      0.154768
     15.00000     18.47502     15.00000        -0.001983      0.223615      0.004165
     16.85886      9.83682     19.39640        -1.367696      5.926377     -4.064172
     17.15706      9.00854     20.10167         1.550133     -5.198876      4.677717
 -----------------------------------------------------------------------------------
    total drift:                                0.014784     -0.003911     -0.003927


--------------------------------------------------------------------------------------------------------



  FREE ENERGIE OF THE ION-ELECTRON SYSTEM (eV)
  ---------------------------------------------------
  free  energy   TOTEN  =      -175.50246770 eV

  energy  without entropy=     -175.41495195  energy(sigma->0) =     -175.48058876
 


--------------------------------------------------------------------------------------------------------


    POTLOK:  cpu time   12.9951: real time   12.9954


--------------------------------------------------------------------------------------------------------


     LOOP+:  cpu time25758.5832: real time25759.4021
    4ORBIT:  cpu time    0.0000: real time    0.0000

 total amount of memory used by VASP MPI-rank0  5486942. kBytes
=======================================================================

   base      :      30000. kBytes
   nonlr-proj:      17127. kBytes
   fftplans  :     924480. kBytes
   grid      :    1872000. kBytes
   one-center:        886. kBytes
   wavefun   :    2642449. kBytes
 
  
  
 General timing and accounting informations for this job:
 ========================================================
  
                  Total CPU time used (sec):    25865.408
                            User time (sec):    24078.532
                          System time (sec):     1786.875
                         Elapsed time (sec):    25866.279
  
                   Maximum memory used (kb):     7178684.
                   Average memory used (kb):           0.
  
                          Minor page faults:    784981612
                          Major page faults:            0
                 Voluntary context switches:          579
