 running on    1 total cores
 distrk:  each k-point on    1 cores,    1 groups
 distr:  one band on    1 cores,    1 groups
 using from now: INCAR     
 vasp.5.4.4.18Apr17-6-g9f103f2a35 (build Sep 03 2018 23:53:05) complex          
  
 POSCAR found type information on POSCAR  Pd C  O 
 POSCAR found :  3 types and      57 ions
 scaLAPACK will be used

 ----------------------------------------------------------------------------- 
|                                                                             |
|  ADVICE TO THIS USER RUNNING 'VASP/VAMP'   (HEAR YOUR MASTER'S VOICE ...):  |
|                                                                             |
|      You enforced a specific xc-type in the INCAR file,                     |
|      a different type was found on the POTCAR file                          |
|          I HOPE YOU KNOW, WHAT YOU ARE  DOING                               |
|                                                                             |
 ----------------------------------------------------------------------------- 

 LDA part: xc-table for Pade appr. of Perdew
 POSCAR, INCAR and KPOINTS ok, starting setup
 FFT: planning ...
 WAVECAR not read
 entering main loop
       N       E                     dE             d eps       ncg     rms          rms(c)
DAV:   1     0.440596078308E+04    0.44060E+04   -0.10059E+05   688   0.815E+02
DAV:   2     0.202902126844E+04   -0.23769E+04   -0.21355E+04  1208   0.106E+02
DAV:   3     0.244217652580E+03   -0.17848E+04   -0.16772E+04  1000   0.923E+01
DAV:   4    -0.132129143129E+03   -0.37635E+03   -0.32368E+03   848   0.437E+01
DAV:   5    -0.179756331315E+03   -0.47627E+02   -0.38474E+02  1048   0.147E+01    0.177E+01
RMM:   6    -0.179480065262E+03    0.27627E+00   -0.70603E+01   729   0.981E+00    0.223E+01
RMM:   7    -0.182268269630E+03   -0.27882E+01   -0.23253E+01   845   0.525E+00    0.229E+01
RMM:   8    -0.184821975829E+03   -0.25537E+01   -0.94287E+00   759   0.414E+00    0.299E+01
RMM:   9    -0.182082683173E+03    0.27393E+01   -0.62613E+00   735   0.336E+00    0.272E+01
RMM:  10    -0.179816862297E+03    0.22658E+01   -0.38027E+00   738   0.277E+00    0.213E+01
RMM:  11    -0.178014909317E+03    0.18020E+01   -0.31446E+00   722   0.248E+00    0.202E+01
RMM:  12    -0.177139602548E+03    0.87531E+00   -0.24466E+00   721   0.219E+00    0.156E+01
RMM:  13    -0.176734587137E+03    0.40502E+00   -0.18879E+00   723   0.203E+00    0.140E+01
RMM:  14    -0.176377617408E+03    0.35697E+00   -0.17494E+00   710   0.196E+00    0.167E+01
RMM:  15    -0.175868953166E+03    0.50866E+00   -0.13397E+00   708   0.178E+00    0.160E+01
RMM:  16    -0.175292660009E+03    0.57629E+00   -0.58698E-01   715   0.115E+00    0.951E+00
RMM:  17    -0.175604616733E+03   -0.31196E+00   -0.50253E-01   717   0.106E+00    0.158E+01
RMM:  18    -0.175320872275E+03    0.28374E+00   -0.40004E-01   716   0.957E-01    0.127E+01
RMM:  19    -0.175548690780E+03   -0.22782E+00   -0.56108E-01   702   0.114E+00    0.138E+01
RMM:  20    -0.174913267118E+03    0.63542E+00   -0.34549E-01   697   0.921E-01    0.835E+00
RMM:  21    -0.174842283556E+03    0.70984E-01   -0.21730E-01   694   0.718E-01    0.872E+00
RMM:  22    -0.174656652165E+03    0.18563E+00   -0.16899E-01   691   0.622E-01    0.654E+00
RMM:  23    -0.174505767225E+03    0.15088E+00   -0.12389E-01   694   0.540E-01    0.495E+00
RMM:  24    -0.174500804518E+03    0.49627E-02   -0.89989E-02   692   0.458E-01    0.520E+00
RMM:  25    -0.174421474914E+03    0.79330E-01   -0.62034E-02   692   0.391E-01    0.345E+00
RMM:  26    -0.174391123549E+03    0.30351E-01   -0.59850E-02   691   0.388E-01    0.302E+00
RMM:  27    -0.174405904040E+03   -0.14780E-01   -0.57182E-02   687   0.372E-01    0.351E+00
RMM:  28    -0.174372234844E+03    0.33669E-01   -0.34688E-02   686   0.310E-01    0.295E+00
RMM:  29    -0.174344348692E+03    0.27886E-01   -0.21584E-02   684   0.245E-01    0.182E+00
RMM:  30    -0.174334785034E+03    0.95637E-02   -0.13580E-02   690   0.190E-01    0.137E+00
RMM:  31    -0.174328357147E+03    0.64279E-02   -0.10337E-02   688   0.168E-01    0.130E+00
RMM:  32    -0.174322436696E+03    0.59205E-02   -0.67523E-03   688   0.136E-01    0.882E-01
RMM:  33    -0.174321450746E+03    0.98595E-03   -0.39498E-03   686   0.103E-01    0.787E-01
RMM:  34    -0.174318652531E+03    0.27982E-02   -0.23408E-03   692   0.806E-02    0.433E-01
RMM:  35    -0.174319938923E+03   -0.12864E-02   -0.19868E-03   685   0.710E-02    0.545E-01
RMM:  36    -0.174321200024E+03   -0.12611E-02   -0.17353E-03   680   0.677E-02    0.446E-01
RMM:  37    -0.174322293608E+03   -0.10936E-02   -0.13257E-03   678   0.585E-02    0.280E-01
RMM:  38    -0.174324386371E+03   -0.20928E-02   -0.84221E-04   676   0.454E-02    0.266E-01
RMM:  39    -0.174327874865E+03   -0.34885E-02   -0.86542E-04   669   0.433E-02    0.205E-01
RMM:  40    -0.174329837740E+03   -0.19629E-02   -0.44378E-04   525   0.315E-02    0.212E-01
RMM:  41    -0.174332705058E+03   -0.28673E-02   -0.49360E-04   546   0.312E-02    0.199E-01
RMM:  42    -0.174335096043E+03   -0.23910E-02   -0.44188E-04   504   0.293E-02    0.133E-01
RMM:  43    -0.174337014021E+03   -0.19180E-02   -0.29502E-04   435   0.234E-02    0.121E-01
RMM:  44    -0.174339289204E+03   -0.22752E-02   -0.36815E-04   480   0.235E-02    0.112E-01
RMM:  45    -0.174340643492E+03   -0.13543E-02   -0.19735E-04   414   0.181E-02    0.109E-01
RMM:  46    -0.174341921219E+03   -0.12777E-02   -0.16561E-04   409   0.159E-02    0.796E-02
RMM:  47    -0.174342862873E+03   -0.94165E-03   -0.11096E-04   408   0.130E-02    0.551E-02
RMM:  48    -0.174343753868E+03   -0.89100E-03   -0.77423E-05   405   0.105E-02    0.591E-02
RMM:  49    -0.174344504611E+03   -0.75074E-03   -0.57235E-05   401   0.895E-03    0.356E-02
RMM:  50    -0.174344976431E+03   -0.47182E-03   -0.31948E-05   386   0.666E-03    0.312E-02
RMM:  51    -0.174345550097E+03   -0.57367E-03   -0.21734E-05   355   0.572E-03    0.235E-02
RMM:  52    -0.174345968605E+03   -0.41851E-03   -0.12331E-05   274   0.471E-03    0.209E-02
RMM:  53    -0.174346561092E+03   -0.59249E-03   -0.16294E-05   307   0.493E-03    0.196E-02
RMM:  54    -0.174346839820E+03   -0.27873E-03   -0.56424E-06   178   0.406E-03    0.110E-02
RMM:  55    -0.174347289189E+03   -0.44937E-03   -0.21625E-05   292   0.508E-03    0.154E-02
RMM:  56    -0.174347471224E+03   -0.18203E-03   -0.62792E-06   175   0.393E-03    0.132E-02
RMM:  57    -0.174347607418E+03   -0.13619E-03   -0.84499E-06   174   0.384E-03    0.749E-03
RMM:  58    -0.174347738334E+03   -0.13092E-03   -0.66797E-06   159   0.376E-03    0.774E-03
RMM:  59    -0.174347842293E+03   -0.10396E-03   -0.44517E-06   132   0.364E-03    0.633E-03
RMM:  60    -0.174347899810E+03   -0.57517E-04   -0.44362E-06   118   0.353E-03
   1 F= -.17434790E+03 E0= -.17433607E+03  d E =-.473156E-01
================================= SLURM INFO ===================================
Command: run-cluster -n 1 -m 10000 -j 000080_vasp --same-node /opt/VASP/vasp
Exit code: 0
Job name: 000080_vasp
Job time: 0 days 6h:45m:50s
MPI task count: 1
Working dir: /home/pashkov/pyFitIt/pyfitit/data/adaptive_pd_co_new_2/sample/000080
Job was running on nodes: b6
Task per node: 1
       JobID     MaxRSS  MaxDiskRead MaxDiskWrite    Elapsed    JobName 
------------ ---------- ------------ ------------ ---------- ---------- 
106551                                              06:45:51 000080_va+ 
106551.batch                                        06:45:51      batch 
