   57   57    1    1
  0.4736842E+03  0.3000000E-08  0.3000000E-08  0.3000000E-08  0.5000000E-15
  1.000000000000000E-004
  CAR 
 6_Pd100_top_free_z(O)                   
    560      1    336
 
  0.0000000E+00  0.0000000E+00  0.0000000E+00  0.1000000E+01
    1      -29.151374   1.000000
    2      -13.682092   1.000000
    3      -11.466465   1.000000
    4      -11.465089   1.000000
    5       -9.349015   1.000000
    6       -6.628522   1.000000
    7       -6.111941   1.000000
    8       -6.111220   1.000000
    9       -6.097436   1.000000
   10       -5.800005   1.000000
   11       -5.797201   1.000000
   12       -5.791808   1.000000
   13       -5.732250   1.000000
   14       -5.677889   1.000000
   15       -5.670940   1.000000
   16       -5.670063   1.000000
   17       -5.666458   1.000000
   18       -5.609254   1.000000
   19       -5.607391   1.000000
   20       -5.598944   1.000000
   21       -5.588007   1.000000
   22       -5.582656   1.000000
   23       -5.581102   1.000000
   24       -5.545059   1.000000
   25       -5.533523   1.000000
   26       -5.532594   1.000000
   27       -5.529681   1.000000
   28       -5.511485   1.000000
   29       -5.509779   1.000000
   30       -5.505824   1.000000
   31       -5.503265   1.000000
   32       -5.499370   1.000000
   33       -5.498410   1.000000
   34       -5.498011   1.000000
   35       -5.493254   1.000000
   36       -5.467090   1.000000
   37       -5.465462   1.000000
   38       -5.457845   1.000000
   39       -5.456186   1.000000
   40       -5.454030   1.000000
   41       -5.453796   1.000000
   42       -5.453306   1.000000
   43       -5.452308   1.000000
   44       -5.418244   1.000000
   45       -5.417340   1.000000
   46       -5.414795   1.000000
   47       -5.412496   1.000000
   48       -5.411178   1.000000
   49       -5.409208   1.000000
   50       -5.406710   1.000000
   51       -5.405733   1.000000
   52       -5.395548   1.000000
   53       -5.391032   1.000000
   54       -5.389826   1.000000
   55       -5.376450   1.000000
   56       -5.321071   1.000000
   57       -5.314692   1.000000
   58       -5.311355   1.000000
   59       -5.308505   1.000000
   60       -5.304745   1.000000
   61       -5.302407   1.000000
   62       -5.300042   1.000000
   63       -5.295828   1.000000
   64       -5.285970   1.000000
   65       -5.285127   1.000000
   66       -5.274722   1.000000
   67       -5.272779   1.000000
   68       -5.202865   1.000000
   69       -5.195719   1.000000
   70       -5.189759   1.000000
   71       -5.188793   1.000000
   72       -5.170428   1.000000
   73       -5.167654   1.000000
   74       -5.165991   1.000000
   75       -5.165202   1.000000
   76       -5.163712   1.000000
   77       -5.156259   1.000000
   78       -5.147324   1.000000
   79       -5.143917   1.000000
   80       -5.135753   1.000000
   81       -5.116228   1.000000
   82       -5.110946   1.000000
   83       -5.109101   1.000000
   84       -5.099780   1.000000
   85       -5.090686   1.000000
   86       -5.090121   1.000000
   87       -5.088000   1.000000
   88       -5.053079   1.000000
   89       -5.046281   1.000000
   90       -5.040108   1.000000
   91       -5.039865   1.000000
   92       -5.039099   1.000000
   93       -5.037221   1.000000
   94       -5.034265   1.000000
   95       -5.033840   1.000000
   96       -5.017102   1.000000
   97       -5.014853   1.000000
   98       -5.012578   1.000000
   99       -5.006521   1.000000
  100       -5.006183   1.000000
  101       -4.996618   1.000000
  102       -4.991819   1.000000
  103       -4.990027   1.000000
  104       -4.981820   1.000000
  105       -4.977853   1.000000
  106       -4.976179   1.000000
  107       -4.971667   1.000000
  108       -4.967507   1.000000
  109       -4.966597   1.000000
  110       -4.956412   1.000000
  111       -4.955229   1.000000
  112       -4.948218   1.000000
  113       -4.943800   0.999999
  114       -4.940865   0.999999
  115       -4.938355   0.999999
  116       -4.936527   0.999999
  117       -4.922988   0.999999
  118       -4.907007   0.999998
  119       -4.905276   0.999998
  120       -4.901547   0.999998
  121       -4.893107   0.999997
  122       -4.889888   0.999996
  123       -4.888010   0.999996
  124       -4.886856   0.999996
  125       -4.885408   0.999996
  126       -4.884303   0.999996
  127       -4.832903   0.999978
  128       -4.830820   0.999977
  129       -4.829517   0.999976
  130       -4.826621   0.999974
  131       -4.826140   0.999973
  132       -4.825450   0.999973
  133       -4.818023   0.999966
  134       -4.815303   0.999964
  135       -4.815137   0.999963
  136       -4.782528   0.999910
  137       -4.779636   0.999903
  138       -4.776873   0.999896
  139       -4.770664   0.999878
  140       -4.752808   0.999809
  141       -4.749106   0.999791
  142       -4.747363   0.999782
  143       -4.724055   0.999625
  144       -4.723944   0.999624
  145       -4.722284   0.999610
  146       -4.714832   0.999540
  147       -4.707657   0.999463
  148       -4.692048   0.999258
  149       -4.680027   0.999060
  150       -4.678229   0.999027
  151       -4.671527   0.998897
  152       -4.669834   0.998862
  153       -4.660283   0.998649
  154       -4.657999   0.998594
  155       -4.657597   0.998584
  156       -4.656774   0.998564
  157       -4.655732   0.998538
  158       -4.652489   0.998455
  159       -4.644939   0.998249
  160       -4.636994   0.998015
  161       -4.635479   0.997968
  162       -4.631765   0.997851
  163       -4.631384   0.997838
  164       -4.630637   0.997814
  165       -4.630440   0.997808
  166       -4.629311   0.997771
  167       -4.627311   0.997705
  168       -4.619324   0.997432
  169       -4.614237   0.997250
  170       -4.606354   0.996961
  171       -4.584573   0.996147
  172       -4.582477   0.996072
  173       -4.582169   0.996061
  174       -4.579571   0.995968
  175       -4.578923   0.995946
  176       -4.578234   0.995922
  177       -4.575525   0.995829
  178       -4.571958   0.995711
  179       -4.562556   0.995432
  180       -4.559703   0.995359
  181       -4.558929   0.995340
  182       -4.544348   0.995093
  183       -4.538920   0.995065
  184       -4.537694   0.995065
  185       -4.537195   0.995066
  186       -4.536932   0.995066
  187       -4.536259   0.995068
  188       -4.533665   0.995081
  189       -4.532296   0.995092
  190       -4.526375   0.995181
  191       -4.499922   0.996558
  192       -4.490647   0.997522
  193       -4.490233   0.997572
  194       -4.489515   0.997660
  195       -4.489093   0.997713
  196       -4.478070   0.999324
  197       -4.468590   1.001100
  198       -4.466066   1.001638
  199       -4.463556   1.002200
  200       -4.457429   1.003690
  201       -4.448425   1.006189
  202       -4.446148   1.006880
  203       -4.445082   1.007211
  204       -4.441898   1.008232
  205       -4.435718   1.010343
  206       -4.433610   1.011101
  207       -4.430981   1.012074
  208       -4.428705   1.012940
  209       -4.428080   1.013182
  210       -4.424850   1.014454
  211       -4.407759   1.021814
  212       -4.398771   1.026008
  213       -4.394828   1.027890
  214       -4.392907   1.028812
  215       -4.392387   1.029062
  216       -4.390870   1.029792
  217       -4.388445   1.030960
  218       -4.387534   1.031399
  219       -4.386107   1.032085
  220       -4.358086   1.044585
  221       -4.350609   1.047225
  222       -4.349741   1.047501
  223       -4.332738   1.051234
  224       -4.326755   1.051617
  225       -4.324694   1.051614
  226       -4.322336   1.051520
  227       -4.321356   1.051451
  228       -4.318926   1.051203
  229       -4.317541   1.051010
  230       -4.317113   1.050943
  231       -4.315699   1.050695
  232       -4.312995   1.050105
  233       -4.310726   1.049489
  234       -4.309327   1.049052
  235       -4.309064   1.048965
  236       -4.307407   1.048381
  237       -4.304734   1.047301
  238       -4.302915   1.046468
  239       -4.301342   1.045680
  240       -4.295233   1.042014
  241       -4.287412   1.035813
  242       -4.286506   1.034980
  243       -4.271641   1.017604
  244       -4.270270   1.015633
  245       -4.269633   1.014696
  246       -4.268329   1.012731
  247       -4.267356   1.011229
  248       -4.264918   1.007313
  249       -4.262849   1.003824
  250       -4.250757   0.980294
  251       -4.248331   0.974912
  252       -4.241739   0.959147
  253       -4.239172   0.952556
  254       -4.237875   0.949128
  255       -4.235758   0.943393
  256       -4.232428   0.934020
  257       -4.231109   0.930188
  258       -4.228334   0.921907
  259       -4.227318   0.918800
  260       -4.227006   0.917840
  261       -4.225147   0.912030
  262       -4.223149   0.905641
  263       -4.221908   0.901593
  264       -4.221552   0.900424
  265       -4.219422   0.893314
  266       -4.213890   0.874057
  267       -4.207193   0.849241
  268       -4.205702   0.843499
  269       -4.202962   0.832743
  270       -4.201948   0.828696
  271       -4.201107   0.825316
  272       -4.199126   0.817252
  273       -4.177942   0.723489
  274       -4.176137   0.714931
  275       -4.167994   0.675376
  276       -4.163043   0.650671
  277       -4.161735   0.644069
  278       -4.160468   0.637650
  279       -4.155870   0.614142
  280       -4.155343   0.611429
  281       -4.153887   0.603913
  282       -4.140886   0.535910
  283       -4.112941   0.389102
  284       -4.111179   0.380040
  285       -4.110979   0.379019
  286       -4.110091   0.374469
  287       -4.107908   0.363341
  288       -4.096296   0.305539
  289       -4.094574   0.297200
  290       -3.948882  -0.051248
  291       -3.853841  -0.018868
  292       -3.802340  -0.001687
  293       -3.798268  -0.000830
  294       -3.765461   0.003678
  295       -3.475633   0.000068
  296       -3.470329   0.000059
  297       -3.427180   0.000017
  298       -3.051508   0.000000
  299       -3.038124   0.000000
  300       -3.033185   0.000000
  301       -3.013613   0.000000
  302       -2.998661   0.000000
  303       -2.936315   0.000000
  304       -2.913245   0.000000
  305       -2.878676   0.000000
  306       -2.538984   0.000000
  307       -2.501599   0.000000
  308       -2.489363   0.000000
  309       -2.317586   0.000000
  310       -2.140040   0.000000
  311       -2.098400   0.000000
  312       -2.057977   0.000000
  313       -2.052714   0.000000
  314       -1.977219   0.000000
  315       -1.922767   0.000000
  316       -1.874093   0.000000
  317       -1.787500   0.000000
  318       -1.752301   0.000000
  319       -1.735402   0.000000
  320       -1.676689   0.000000
  321       -1.622152   0.000000
  322       -1.600560   0.000000
  323       -1.532084   0.000000
  324       -1.430005   0.000000
  325       -1.416005   0.000000
  326       -1.218975   0.000000
  327       -1.172894   0.000000
  328       -1.144143   0.000000
  329       -0.972758   0.000000
  330       -0.965050   0.000000
  331       -0.948443   0.000000
  332       -0.917005   0.000000
  333       -0.911460   0.000000
  334       -0.899023   0.000000
  335       -0.840645   0.000000
  336       -0.737713   0.000000
