 vasp.5.4.4.18Apr17-6-g9f103f2a35 (build Sep 03 2018 23:53:05) complex          
  
 executed on             LinuxIFC date 2021.12.01  23:46:31
 running on    1 total cores
 distrk:  each k-point on    1 cores,    1 groups
 distr:  one band on NCORES_PER_BAND=   1 cores,    1 groups


--------------------------------------------------------------------------------------------------------


 INCAR:
 POTCAR:    PAW_PBE Pd 04Jan2005                  
 POTCAR:    PAW_PBE C 08Apr2002                   
 POTCAR:    PAW_PBE O 08Apr2002                   
 POTCAR:    PAW_PBE Pd 04Jan2005                  
   VRHFIN =Pd : s1 d9                                                           
   LEXCH  = PE                                                                  
   EATOM  =   809.7530 eV,   59.5152 Ry                                         
                                                                                
   TITEL  = PAW_PBE Pd 04Jan2005                                                
   LULTRA =        F    use ultrasoft PP ?                                      
   IUNSCR =        1    unscreen: 0-lin 1-nonlin 2-no                           
   RPACOR =    2.000    partial core radius                                     
   POMASS =  106.420; ZVAL   =   10.000    mass and valenz                      
   RCORE  =    2.600    outmost cutoff radius                                   
   RWIGS  =    2.710; RWIGS  =    1.434    wigner-seitz radius (au A)           
   ENMAX  =  250.925; ENMIN  =  188.194 eV                                      
   ICORE  =        3    local potential                                         
   LCOR   =        T    correct aug charges                                     
   LPAW   =        T    paw PP                                                  
   EAUG   =  416.230                                                            
   DEXC   =    0.000                                                            
   RMAX   =    2.653    core radius for proj-oper                               
   RAUG   =    1.300    factor for augmentation sphere                          
   RDEP   =    2.734    radius for radial grids                                 
   RDEPT  =    2.103    core radius for aug-charge                              
                                                                                
   Atomic configuration                                                         
   12 entries                                                                   
     n  l   j            E        occ.                                          
     1  0  0.50    -24164.6631   2.0000                                         
     2  0  0.50     -3530.9218   2.0000                                         
     2  1  1.50     -3165.6822   6.0000                                         
     3  0  0.50      -639.4577   2.0000                                         
     3  1  1.50      -519.4532   6.0000                                         
     3  2  2.50      -328.9757  10.0000                                         
     4  0  0.50       -88.7014   2.0000                                         
     4  1  1.50       -54.4540   6.0000                                         
     4  2  2.50        -6.6878   9.0000                                         
     5  0  0.50        -4.3543   1.0000                                         
     5  1  0.50        -1.3606   0.0000                                         
     4  3  2.50        -1.3606   0.0000                                         
   Description                                                                  
     l       E           TYP  RCUT    TYP  RCUT                                 
     2     -6.6878251     23  2.400                                             
     2     -8.0484077     23  2.400                                             
     0     -4.3542939     23  2.400                                             
     0      4.3406793     23  2.400                                             
     1     -4.0817478     23  2.600                                             
     1     15.8380318     23  2.600                                             
     3     -4.0817478     23  2.400                                             
  local pseudopotential read in
  partial core-charges read in
  partial kinetic energy density read in
  atomic valenz-charges read in
  non local Contribution for L=           2  read in
    real space projection operators read in
  non local Contribution for L=           2  read in
    real space projection operators read in
  non local Contribution for L=           0  read in
    real space projection operators read in
  non local Contribution for L=           0  read in
    real space projection operators read in
  non local Contribution for L=           1  read in
    real space projection operators read in
  non local Contribution for L=           1  read in
    real space projection operators read in
    PAW grid and wavefunctions read in
 
   number of l-projection  operators is LMAX  =           6
   number of lm-projection operators is LMMAX =          18
 
 POTCAR:    PAW_PBE C 08Apr2002                   
   VRHFIN =C: s2p2                                                              
   LEXCH  = PE                                                                  
   EATOM  =   147.1560 eV,   10.8157 Ry                                         
                                                                                
   TITEL  = PAW_PBE C 08Apr2002                                                 
   LULTRA =        F    use ultrasoft PP ?                                      
   IUNSCR =        1    unscreen: 0-lin 1-nonlin 2-no                           
   RPACOR =    1.200    partial core radius                                     
   POMASS =   12.011; ZVAL   =    4.000    mass and valenz                      
   RCORE  =    1.500    outmost cutoff radius                                   
   RWIGS  =    1.630; RWIGS  =    0.863    wigner-seitz radius (au A)           
   ENMAX  =  400.000; ENMIN  =  300.000 eV                                      
   ICORE  =        2    local potential                                         
   LCOR   =        T    correct aug charges                                     
   LPAW   =        T    paw PP                                                  
   EAUG   =  644.873                                                            
   DEXC   =    0.000                                                            
   RMAX   =    1.529    core radius for proj-oper                               
   RAUG   =    1.300    factor for augmentation sphere                          
   RDEP   =    1.501    radius for radial grids                                 
   RDEPT  =    1.300    core radius for aug-charge                              
                                                                                
   Atomic configuration                                                         
    4 entries                                                                   
     n  l   j            E        occ.                                          
     1  0  0.50      -273.3789   2.0000                                         
     2  0  0.50       -13.7508   2.0000                                         
     2  1  0.50        -5.2854   2.0000                                         
     3  2  1.50        -5.4423   0.0000                                         
   Description                                                                  
     l       E           TYP  RCUT    TYP  RCUT                                 
     0    -13.7508458     23  1.200                                             
     0     -8.2022199     23  1.200                                             
     1     -5.2854383     23  1.500                                             
     1     34.0145650     23  1.500                                             
     2     -5.4423304      7  1.500                                             
  local pseudopotential read in
  partial core-charges read in
  partial kinetic energy density read in
  atomic valenz-charges read in
  non local Contribution for L=           0  read in
    real space projection operators read in
  non local Contribution for L=           0  read in
    real space projection operators read in
  non local Contribution for L=           1  read in
    real space projection operators read in
  non local Contribution for L=           1  read in
    real space projection operators read in
    PAW grid and wavefunctions read in
 
   number of l-projection  operators is LMAX  =           4
   number of lm-projection operators is LMMAX =           8
 
 POTCAR:    PAW_PBE O 08Apr2002                   
   VRHFIN =O: s2p4                                                              
   LEXCH  = PE                                                                  
   EATOM  =   432.3788 eV,   31.7789 Ry                                         
                                                                                
   TITEL  = PAW_PBE O 08Apr2002                                                 
   LULTRA =        F    use ultrasoft PP ?                                      
   IUNSCR =        1    unscreen: 0-lin 1-nonlin 2-no                           
   RPACOR =    1.200    partial core radius                                     
   POMASS =   16.000; ZVAL   =    6.000    mass and valenz                      
   RCORE  =    1.520    outmost cutoff radius                                   
   RWIGS  =    1.550; RWIGS  =    0.820    wigner-seitz radius (au A)           
   ENMAX  =  400.000; ENMIN  =  300.000 eV                                      
   ICORE  =        2    local potential                                         
   LCOR   =        T    correct aug charges                                     
   LPAW   =        T    paw PP                                                  
   EAUG   =  605.392                                                            
   DEXC   =    0.000                                                            
   RMAX   =    1.553    core radius for proj-oper                               
   RAUG   =    1.300    factor for augmentation sphere                          
   RDEP   =    1.550    radius for radial grids                                 
   RDEPT  =    1.329    core radius for aug-charge                              
                                                                                
   Atomic configuration                                                         
    4 entries                                                                   
     n  l   j            E        occ.                                          
     1  0  0.50      -514.6923   2.0000                                         
     2  0  0.50       -23.9615   2.0000                                         
     2  1  0.50        -9.0305   4.0000                                         
     3  2  1.50        -9.5241   0.0000                                         
   Description                                                                  
     l       E           TYP  RCUT    TYP  RCUT                                 
     0    -23.9615318     23  1.200                                             
     0     -9.5240782     23  1.200                                             
     1     -9.0304911     23  1.520                                             
     1      8.1634956     23  1.520                                             
     2     -9.5240782      7  1.500                                             
  local pseudopotential read in
  partial core-charges read in
  partial kinetic energy density read in
  kinetic energy density of atom read in
  atomic valenz-charges read in
  non local Contribution for L=           0  read in
    real space projection operators read in
  non local Contribution for L=           0  read in
    real space projection operators read in
  non local Contribution for L=           1  read in
    real space projection operators read in
  non local Contribution for L=           1  read in
    real space projection operators read in
    PAW grid and wavefunctions read in
 
   number of l-projection  operators is LMAX  =           4
   number of lm-projection operators is LMMAX =           8
 
 Optimization of the real space projectors (new method)

 maximal supplied QI-value         = 14.36
 optimisation between [QCUT,QGAM] = [ 10.20, 20.39] = [ 29.12,116.47] Ry 
 Optimized for a Real-space Cutoff    1.51 Angstroem

   l    n(q)    QCUT    max X(q) W(low)/X(q) W(high)/X(q)  e(spline) 
   2      8    10.197    59.108    0.26E-03    0.14E-03    0.96E-07
   2      8    10.197    58.101    0.27E-03    0.14E-03    0.98E-07
   0      9    10.197   102.235    0.54E-04    0.60E-05    0.72E-07
   0      9    10.197    58.388    0.52E-04    0.60E-05    0.68E-07
   1      9    10.197    22.191    0.18E-03    0.25E-03    0.79E-07
   1      9    10.197    15.590    0.15E-03    0.21E-03    0.69E-07
 Optimization of the real space projectors (new method)

 maximal supplied QI-value         = 25.13
 optimisation between [QCUT,QGAM] = [ 10.05, 20.36] = [ 28.30,116.06] Ry 
 Optimized for a Real-space Cutoff    1.30 Angstroem

   l    n(q)    QCUT    max X(q) W(low)/X(q) W(high)/X(q)  e(spline) 
   0      8    10.053   115.676    0.49E-03    0.72E-03    0.18E-06
   0      8    10.053    87.132    0.49E-03    0.71E-03    0.18E-06
   1      7    10.053     4.429    0.32E-03    0.31E-03    0.18E-06
   1      7    10.053     2.733    0.23E-03    0.19E-03    0.20E-06
 Optimization of the real space projectors (new method)

 maximal supplied QI-value         = 24.76
 optimisation between [QCUT,QGAM] = [ 10.15, 20.30] = [ 28.85,115.39] Ry 
 Optimized for a Real-space Cutoff    1.38 Angstroem

   l    n(q)    QCUT    max X(q) W(low)/X(q) W(high)/X(q)  e(spline) 
   0      8    10.150    20.381    0.22E-03    0.32E-03    0.29E-06
   0      8    10.150    15.268    0.23E-03    0.35E-03    0.30E-06
   1      8    10.150     5.964    0.46E-03    0.53E-03    0.21E-06
   1      8    10.150     5.382    0.38E-03    0.45E-03    0.19E-06

 ----------------------------------------------------------------------------- 
|                                                                             |
|  ADVICE TO THIS USER RUNNING 'VASP/VAMP'   (HEAR YOUR MASTER'S VOICE ...):  |
|                                                                             |
|      You enforced a specific xc-type in the INCAR file,                     |
|      a different type was found on the POTCAR file                          |
|          I HOPE YOU KNOW, WHAT YOU ARE  DOING                               |
|                                                                             |
 ----------------------------------------------------------------------------- 

  PAW_PBE Pd 04Jan2005                  :
 energy of atom  1       EATOM= -809.7530
 kinetic energy error for atom=    0.0091 (will be added to EATOM!!)
  PAW_PBE C 08Apr2002                   :
 energy of atom  2       EATOM= -147.1560
 kinetic energy error for atom=    0.0288 (will be added to EATOM!!)
  PAW_PBE O 08Apr2002                   :
 energy of atom  3       EATOM= -432.3788
 kinetic energy error for atom=    0.1156 (will be added to EATOM!!)
 
 
 POSCAR: Pd55PES                                 
  positions in cartesian coordinates
  No initial velocities read in
 exchange correlation table for  LEXCH =        9
   RHO(1)=    0.500       N(1)  =     2000
   RHO(2)=  100.500       N(2)  =     4000
 


--------------------------------------------------------------------------------------------------------


 ion  position               nearest neighbor table
   1  0.446  0.328  0.417-   3 3.25   5 3.25   7 3.36  15 3.36  29 3.42  28 3.42
   2  0.672  0.554  0.417-  26 3.25  30 3.25  17 3.36   9 3.36  47 3.42  49 3.42
   3  0.554  0.328  0.417-   1 3.25   5 3.25   7 3.36  11 3.36  29 3.42  21 3.42
   4  0.328  0.554  0.417-  32 3.25  22 3.25  13 3.36   8 3.36  43 3.42  48 3.42
   5  0.500  0.383  0.340-   1 3.25   3 3.25  11 3.36  15 3.36  21 3.42  28 3.42
   6  0.500  0.383  0.660-  24 3.25  19 3.25  16 3.36  12 3.36  42 3.42  44 3.42
   7  0.500  0.276  0.500-  29 3.24   3 3.36   1 3.36  19 3.36  24 3.36
   8  0.276  0.500  0.500-  48 3.24  22 3.36  40 3.36   4 3.36  25 3.36
   9  0.724  0.500  0.500-  49 3.24  26 3.36  45 3.36   2 3.36  20 3.36
  10  0.500  0.724  0.500-  55 3.24  27 3.36  23 3.36  46 3.36  41 3.36
  11  0.612  0.388  0.342-  21 3.24   5 3.36   3 3.36  30 3.36  26 3.36
  12  0.612  0.388  0.658-  42 3.24  24 3.36  45 3.36   6 3.36  31 3.36
  13  0.388  0.612  0.342-  43 3.24  32 3.36  50 3.36   4 3.36  27 3.36
  14  0.388  0.612  0.658-  53 3.24  25 3.36  33 3.36  51 3.36  46 3.36
  15  0.388  0.388  0.342-  28 3.24   5 3.36   1 3.36  32 3.36  22 3.36
  16  0.388  0.388  0.658-  44 3.24  19 3.36  40 3.36   6 3.36  33 3.36
  17  0.612  0.612  0.342-  47 3.24  30 3.36  50 3.36   2 3.36  23 3.36
  18  0.612  0.612  0.658-  54 3.24  31 3.36  20 3.36  51 3.36  41 3.36
  19  0.446  0.328  0.583-   6 3.25  24 3.25  16 3.36   7 3.36  44 3.42  29 3.42
  20  0.672  0.554  0.583-  31 3.25  45 3.25  18 3.36   9 3.36  54 3.42  49 3.42
  21  0.558  0.442  0.418-  11 3.24   5 3.42   3 3.42  30 3.42  26 3.42
  22  0.328  0.446  0.417-   4 3.25  32 3.25   8 3.36  15 3.36  48 3.42  28 3.42
  23  0.554  0.672  0.417-  27 3.25  50 3.25  10 3.36  17 3.36  55 3.42  47 3.42
  24  0.554  0.328  0.583-   6 3.25  19 3.25  12 3.36   7 3.36  42 3.42  29 3.42
  25  0.328  0.554  0.583-  33 3.25  40 3.25  14 3.36   8 3.36  53 3.42  48 3.42
  26  0.672  0.446  0.417-   2 3.25  30 3.25   9 3.36  11 3.36  49 3.42  21 3.42
  27  0.446  0.672  0.417-  23 3.25  50 3.25  10 3.36  13 3.36  55 3.42  43 3.42
  28  0.442  0.442  0.418-  15 3.24   5 3.42   1 3.42  32 3.42  22 3.42
  29  0.500  0.384  0.500-   7 3.24   3 3.42   1 3.42  24 3.42  19 3.42
  30  0.617  0.500  0.340-   2 3.25  26 3.25  17 3.36  11 3.36  47 3.42  21 3.42
  31  0.617  0.500  0.660-  20 3.25  45 3.25  18 3.36  12 3.36  54 3.42  42 3.42
  32  0.383  0.500  0.340-   4 3.25  22 3.25  13 3.36  15 3.36  43 3.42  28 3.42
  33  0.383  0.500  0.660-  25 3.25  40 3.25  14 3.36  16 3.36  53 3.42  44 3.42
  34  0.383  0.383  0.500-
  35  0.617  0.617  0.500-
  36  0.617  0.383  0.500-
  37  0.383  0.617  0.500-
  38  0.500  0.500  0.335-
  39  0.500  0.500  0.665-  56 2.43
  40  0.328  0.446  0.583-  33 3.25  25 3.25  16 3.36   8 3.36  44 3.42  48 3.42
  41  0.554  0.672  0.583-  46 3.25  51 3.25  10 3.36  18 3.36  54 3.42  55 3.42
  42  0.558  0.442  0.582-  12 3.24   6 3.42  24 3.42  31 3.42  45 3.42
  43  0.442  0.558  0.418-  13 3.24   4 3.42  32 3.42  27 3.42  50 3.42
  44  0.442  0.442  0.582-  16 3.24   6 3.42  19 3.42  33 3.42  40 3.42
  45  0.672  0.446  0.583-  20 3.25  31 3.25   9 3.36  12 3.36  49 3.42  42 3.42
  46  0.446  0.672  0.583-  41 3.25  51 3.25  10 3.36  14 3.36  53 3.42  55 3.42
  47  0.558  0.558  0.418-  17 3.24   2 3.42  30 3.42  23 3.42  50 3.42
  48  0.384  0.500  0.500-   8 3.24   4 3.42  22 3.42  25 3.42  40 3.42
  49  0.616  0.500  0.500-   9 3.24   2 3.42  26 3.42  20 3.42  45 3.42
  50  0.500  0.617  0.340-  27 3.25  23 3.25  13 3.36  17 3.36  43 3.42  47 3.42
  51  0.500  0.617  0.660-  41 3.25  46 3.25  14 3.36  18 3.36  53 3.42  54 3.42
  52  0.500  0.500  0.500-
  53  0.442  0.558  0.582-  14 3.24  25 3.42  33 3.42  51 3.42  46 3.42
  54  0.558  0.558  0.582-  18 3.24  31 3.42  20 3.42  51 3.42  41 3.42
  55  0.500  0.616  0.500-  10 3.24  23 3.42  27 3.42  41 3.42  46 3.42
  56  0.497  0.519  0.744-  57 1.13  39 2.43
  57  0.497  0.522  0.781-  56 1.13
 
  LATTYP: Found a simple cubic cell.
 ALAT       =    30.0000000000
  
  Lattice vectors:
  
 A1 = (  30.0000000000,   0.0000000000,   0.0000000000)
 A2 = (   0.0000000000,  30.0000000000,   0.0000000000)
 A3 = (   0.0000000000,   0.0000000000,  30.0000000000)


Analysis of symmetry for initial positions (statically):
=====================================================================
 Subroutine PRICEL returns:
 Original cell was already a primitive cell.
 

 Routine SETGRP: Setting up the symmetry group for a 
 simple cubic supercell.


 Subroutine GETGRP returns: Found  1 space group operations
 (whereof  1 operations were pure point group operations)
 out of a pool of 48 trial point group operations.


The static configuration has the point symmetry C_1 .


Analysis of symmetry for dynamics (positions and initial velocities):
=====================================================================
 Subroutine PRICEL returns:
 Original cell was already a primitive cell.
 

 Routine SETGRP: Setting up the symmetry group for a 
 simple cubic supercell.


 Subroutine GETGRP returns: Found  1 space group operations
 (whereof  1 operations were pure point group operations)
 out of a pool of 48 trial point group operations.


The dynamic configuration has the point symmetry C_1 .


Analysis of constrained symmetry for selective dynamics:
=====================================================================
 Subroutine PRICEL returns:
 Original cell was already a primitive cell.
 

 Routine SETGRP: Setting up the symmetry group for a 
 simple cubic supercell.


 Subroutine GETGRP returns: Found  1 space group operations
 (whereof  1 operations were pure point group operations)
 out of a pool of 48 trial point group operations.


The constrained configuration has the point symmetry C_1 .


 Subroutine INISYM returns: Found  1 space group operations
 (whereof  1 operations are pure point group operations),
 and found     1 'primitive' translations

 
 
 KPOINTS: K-points                                

Automatic generation of k-mesh.
Space group operators:
 irot       det(A)        alpha          n_x          n_y          n_z        tau_x        tau_y        tau_z
    1     1.000000     0.000000     1.000000     0.000000     0.000000     0.000000     0.000000     0.000000
 
 Subroutine IBZKPT returns following result:
 ===========================================
 
 Found      1 irreducible k-points:
 
 Following reciprocal coordinates:
            Coordinates               Weight
  0.000000  0.000000  0.000000      1.000000
 
 Following cartesian coordinates:
            Coordinates               Weight
  0.000000  0.000000  0.000000      1.000000
 


--------------------------------------------------------------------------------------------------------




 Dimension of arrays:
   k-points           NKPTS =      1   k-points in BZ     NKDIM =      1   number of bands    NBANDS=    336
   number of dos      NEDOS =    301   number of ions     NIONS =     57
   non local maximal  LDIM  =      6   non local SUM 2l+1 LMDIM =     18
   total plane-waves  NPLWV = ******
   max r-space proj   IRMAX =   1847   max aug-charges    IRDMAX=   6262
   dimension x,y,z NGX =   150 NGY =  150 NGZ =  150
   dimension x,y,z NGXF=   300 NGYF=  300 NGZF=  300
   support grid    NGXF=   300 NGYF=  300 NGZF=  300
   ions per type =              55   1   1
   NGX,Y,Z   is equivalent  to a cutoff of   8.31,  8.31,  8.31 a.u.
   NGXF,Y,Z  is equivalent  to a cutoff of  16.62, 16.62, 16.62 a.u.

 SYSTEM =  6_Pd100_top_free_z(O)                   
 POSCAR =  Pd55PES                                 

 Startparameter for this run:
   NWRITE =      2    write-flag & timer
   PREC   = normal    normal or accurate (medium, high low for compatibility)
   ISTART =      0    job   : 0-new  1-cont  2-samecut
   ICHARG =      2    charge: 1-file 2-atom 10-const
   ISPIN  =      1    spin polarized calculation?
   LNONCOLLINEAR =      F non collinear calculations
   LSORBIT =      F    spin-orbit coupling
   INIWAV =      1    electr: 0-lowe 1-rand  2-diag
   LASPH  =      F    aspherical Exc in radial PAW
   METAGGA=      F    non-selfconsistent MetaGGA calc.

 Electronic Relaxation 1
   ENCUT  =  400.0 eV  29.40 Ry    5.42 a.u.  48.92 48.92 48.92*2*pi/ulx,y,z
   ENINI  =  400.0     initial cutoff
   ENAUG  =  644.9 eV  augmentation charge cutoff
   NELM   =    100;   NELMIN=  6; NELMDL= -5     # of ELM steps 
   EDIFF  = 0.1E-03   stopping-criterion for ELM
   LREAL  =      T    real-space projection
   NLSPLINE    = F    spline interpolate recip. space projectors
   LCOMPAT=      F    compatible to vasp.4.4
   GGA_COMPAT  = T    GGA compatible to vasp.4.4-vasp.4.6
   LMAXPAW     = -100 max onsite density
   LMAXMIX     =    2 max onsite mixed and CHGCAR
   VOSKOWN=      0    Vosko Wilk Nusair interpolation
   ROPT   =   -0.00050  -0.00050  -0.00050
 Ionic relaxation
   EDIFFG = -.5E-01   stopping-criterion for IOM
   NSW    =      0    number of steps for IOM
   NBLOCK =      1;   KBLOCK =      1    inner block; outer block 
   IBRION =     -1    ionic relax: 0-MD 1-quasi-New 2-CG
   NFREE  =      1    steps in history (QN), initial steepest desc. (CG)
   ISIF   =      2    stress and relaxation
   IWAVPR =     10    prediction:  0-non 1-charg 2-wave 3-comb
   ISYM   =      2    0-nonsym 1-usesym 2-fastsym
   LCORR  =      T    Harris-Foulkes like correction to forces

   POTIM  = 0.5000    time-step for ionic-motion
   TEIN   =    0.0    initial temperature
   TEBEG  =    0.0;   TEEND  =   0.0 temperature during run
   SMASS  =  -3.00    Nose mass-parameter (am)
   estimated Nose-frequenzy (Omega)   =  0.10E-29 period in steps =****** mass=  -0.206E-25a.u.
   SCALEE = 1.0000    scale energy and forces
   NPACO  =    256;   APACO  = 16.0  distance and # of slots for P.C.
   PSTRESS=    0.0 pullay stress

  Mass of Ions in am
   POMASS = 106.42 12.01 16.00
  Ionic Valenz
   ZVAL   =  10.00  4.00  6.00
  Atomic Wigner-Seitz radii
   RWIGS  =  -1.00 -1.00 -1.00
  virtual crystal weights 
   VCA    =   1.00  1.00  1.00
   NELECT =     560.0000    total number of electrons
   NUPDOWN=      -1.0000    fix difference up-down

 DOS related values:
   EMIN   =  10.00;   EMAX   =-10.00  energy-range for DOS
   EFERMI =   0.00
   ISMEAR =     2;   SIGMA  =   0.20  broadening in eV -4-tet -1-fermi 0-gaus

 Electronic relaxation 2 (details)
   IALGO  =     68    algorithm
   LDIAG  =      T    sub-space diagonalisation (order eigenvalues)
   LSUBROT=      F    optimize rotation matrix (better conditioning)
   TURBO    =      0    0=normal 1=particle mesh
   IRESTART =      0    0=no restart 2=restart with 2 vectors
   NREBOOT  =      0    no. of reboots
   NMIN     =      0    reboot dimension
   EREF     =   0.00    reference energy to select bands
   IMIX   =      4    mixing-type and parameters
     AMIX     =   0.40;   BMIX     =  1.00
     AMIX_MAG =   1.60;   BMIX_MAG =  1.00
     AMIN     =   0.10
     WC   =   100.;   INIMIX=   1;  MIXPRE=   1;  MAXMIX= -45

 Intra band minimization:
   WEIMIN = 0.0000     energy-eigenvalue tresh-hold
   EBREAK =  0.74E-07  absolut break condition
   DEPER  =   0.30     relativ break condition  

   TIME   =   0.40     timestep for ELM

  volume/ion in A,a.u.               =     473.68      3196.58
  Fermi-wavevector in a.u.,A,eV,Ry     =   0.449797  0.849992  2.752691  0.202317
  Thomas-Fermi vector in A             =   1.430086
 
 Write flags
   LWAVE        =      F    write WAVECAR
   LDOWNSAMPLE  =      F    k-point downsampling of WAVECAR
   LCHARG       =      F    write CHGCAR
   LVTOT        =      F    write LOCPOT, total local potential
   LVHAR        =      F    write LOCPOT, Hartree potential only
   LELF         =      F    write electronic localiz. function (ELF)
   LORBIT       =      0    0 simple, 1 ext, 2 COOP (PROOUT), +10 PAW based schemes


 Dipole corrections
   LMONO  =      F    monopole corrections only (constant potential shift)
   LDIPOL =      F    correct potential (dipole corrections)
   IDIPOL =      0    1-x, 2-y, 3-z, 4-all directions 
   EPSILON=  1.0000000 bulk dielectric constant

 Exchange correlation treatment:
   GGA     =    RP    GGA type
   LEXCH   =     9    internal setting for exchange type
   VOSKOWN=      0    Vosko Wilk Nusair interpolation
   LHFCALC =     F    Hartree Fock is set to
   LHFONE  =     F    Hartree Fock one center treatment
   AEXX    =    0.0000 exact exchange contribution

 Linear response parameters
   LEPSILON=     F    determine dielectric tensor
   LRPA    =     F    only Hartree local field effects (RPA)
   LNABLA  =     F    use nabla operator in PAW spheres
   LVEL    =     F    velocity operator in full k-point grid
   LINTERFAST=   F  fast interpolation
   KINTER  =     0    interpolate to denser k-point grid
   CSHIFT  =0.1000    complex shift for real part using Kramers Kronig
   OMEGAMAX=  -1.0    maximum frequency
   DEG_THRESHOLD= 0.2000000E-02 threshold for treating states as degnerate
   RTIME   =   -0.100 relaxation time in fs
  (WPLASMAI=    0.000 imaginary part of plasma frequency in eV, 0.658/RTIME)
   DFIELD  = 0.0000000 0.0000000 0.0000000 field for delta impulse in time
 
 Orbital magnetization related:
   ORBITALMAG=     F  switch on orbital magnetization
   LCHIMAG   =     F  perturbation theory with respect to B field
   DQ        =  0.001000  dq finite difference perturbation B field
   LLRAUG    =     F  two centre corrections for induced B field



--------------------------------------------------------------------------------------------------------


 Static calculation
 charge density and potential will be updated during run
 non-spin polarized calculation
 RMM-DIIS sequential band-by-band and
  variant of blocked Davidson during initial phase
 perform sub-space diagonalisation
    before iterative eigenvector-optimisation
 modified Broyden-mixing scheme, WC =      100.0
 initial mixing is a Kerker type mixing with AMIX =  0.4000 and BMIX =      1.0000
 Hartree-type preconditioning will be used
 using additional bands           56
 real space projection scheme for non local part
 use partial core corrections
 calculate Harris-corrections to forces 
   (improved forces if not selfconsistent)
 use gradient corrections 
 use of overlap-Matrix (Vanderbilt PP)
 Methfessel and Paxton  Order N= 2 SIGMA  =   0.20


--------------------------------------------------------------------------------------------------------


  energy-cutoff  :      400.00
  volume of cell :    27000.00
      direct lattice vectors                 reciprocal lattice vectors
    30.000000000  0.000000000  0.000000000     0.033333333  0.000000000  0.000000000
     0.000000000 30.000000000  0.000000000     0.000000000  0.033333333  0.000000000
     0.000000000  0.000000000 30.000000000     0.000000000  0.000000000  0.033333333

  length of vectors
    30.000000000 30.000000000 30.000000000     0.033333333  0.033333333  0.033333333


 
 k-points in units of 2pi/SCALE and weight: K-points                                
   0.00000000  0.00000000  0.00000000       1.000
 
 k-points in reciprocal lattice and weights: K-points                                
   0.00000000  0.00000000  0.00000000       1.000
 
 position of ions in fractional coordinates (direct lattice) 
   0.44576020  0.32826710  0.41691983
   0.67173288  0.55423978  0.41691983
   0.55423980  0.32826710  0.41691983
   0.32826712  0.55423978  0.41691983
   0.50000000  0.38250690  0.34021317
   0.50000000  0.38250690  0.65978680
   0.50000000  0.27609440  0.50000000
   0.27609443  0.49999998  0.50000000
   0.72390557  0.49999998  0.50000000
   0.50000000  0.72390555  0.50000000
   0.61195280  0.38804720  0.34167483
   0.61195280  0.38804720  0.65832513
   0.38804722  0.61195278  0.34167483
   0.38804722  0.61195278  0.65832513
   0.38804720  0.38804720  0.34167483
   0.38804720  0.38804720  0.65832513
   0.61195278  0.61195278  0.34167483
   0.61195278  0.61195278  0.65832513
   0.44576020  0.32826710  0.58308023
   0.67173288  0.55423978  0.58308023
   0.55791699  0.44208301  0.41809300
   0.32826705  0.44576024  0.41691983
   0.55423973  0.67173293  0.41691983
   0.55423980  0.32826710  0.58308023
   0.32826712  0.55423978  0.58308023
   0.67173295  0.44576024  0.41691983
   0.44576027  0.67173293  0.41691983
   0.44208301  0.44208301  0.41809300
   0.50000000  0.38416601  0.50000000
   0.61749315  0.50000005  0.34021317
   0.61749315  0.50000005  0.65978680
   0.38250685  0.50000005  0.34021317
   0.38250685  0.50000005  0.65978680
   0.38317830  0.38317830  0.50000000
   0.61682172  0.61682172  0.50000000
   0.61682170  0.38317830  0.50000000
   0.38317828  0.61682172  0.50000000
   0.50000000  0.50000000  0.33478917
   0.50000000  0.50000000  0.66521087
   0.32826705  0.44576024  0.58308023
   0.55423973  0.67173293  0.58308023
   0.55791699  0.44208301  0.58190703
   0.44208298  0.55791702  0.41809300
   0.44208301  0.44208301  0.58190703
   0.67173295  0.44576024  0.58308023
   0.44576027  0.67173293  0.58308023
   0.55791702  0.55791702  0.41809300
   0.38416599  0.50000002  0.50000000
   0.61583401  0.50000002  0.50000000
   0.50000000  0.61749319  0.34021317
   0.50000000  0.61749319  0.65978680
   0.50000000  0.50000000  0.50000000
   0.44208298  0.55791702  0.58190703
   0.55791702  0.55791702  0.58190703
   0.50000000  0.61583404  0.50000000
   0.49717567  0.51908427  0.74383537
   0.49674150  0.52201793  0.78131823
 
 position of ions in cartesian coordinates  (Angst):
  13.37280588  9.84801292 12.50759500
  20.15198637 16.62719342 12.50759500
  16.62719412  9.84801292 12.50759500
   9.84801363 16.62719342 12.50759500
  15.00000000 11.47520705 10.20639500
  15.00000000 11.47520705 19.79360400
  15.00000000  8.28283206 15.00000000
   8.28283277 14.99999929 15.00000000
  21.71716723 14.99999929 15.00000000
  15.00000000 21.71716652 14.99999999
  18.35858397 11.64141603 10.25024500
  18.35858397 11.64141603 19.74975399
  11.64141674 18.35858326 10.25024500
  11.64141674 18.35858326 19.74975400
  11.64141603 11.64141603 10.25024500
  11.64141603 11.64141603 19.74975400
  18.35858326 18.35858326 10.25024500
  18.35858326 18.35858326 19.74975400
  13.37280588  9.84801291 17.49240700
  20.15198638 16.62719341 17.49240700
  16.73750985 13.26249015 12.54279000
   9.84801151 13.37280729 12.50759500
  16.62719200 20.15198779 12.50759500
  16.62719412  9.84801292 17.49240700
   9.84801363 16.62719342 17.49240700
  20.15198849 13.37280729 12.50759500
  13.37280800 20.15198779 12.50759500
  13.26249015 13.26249015 12.54279000
  15.00000000 11.52498029 15.00000000
  18.52479437 15.00000140 10.20639500
  18.52479437 15.00000141 19.79360400
  11.47520562 15.00000141 10.20639501
  11.47520563 15.00000141 19.79360400
  11.49534898 11.49534898 15.00000000
  18.50465172 18.50465172 15.00000000
  18.50465102 11.49534898 15.00000000
  11.49534828 18.50465172 15.00000000
  15.00000000 15.00000000 10.04367500
  15.00000000 15.00000000 19.95632599
   9.84801151 13.37280729 17.49240700
  16.62719200 20.15198779 17.49240700
  16.73750985 13.26249015 17.45721100
  13.26248944 16.73751056 12.54279001
  13.26249015 13.26249015 17.45721100
  20.15198849 13.37280729 17.49240699
  13.37280800 20.15198779 17.49240700
  16.73751056 16.73751056 12.54279000
  11.52497959 15.00000071 15.00000000
  18.47502041 15.00000071 15.00000000
  14.99999999 18.52479579 10.20639500
  15.00000000 18.52479578 19.79360400
  15.00000000 15.00000000 15.00000000
  13.26248944 16.73751057 17.45721101
  16.73751056 16.73751057 17.45721100
  15.00000000 18.47502112 15.00000000
  14.91527000 15.57252800 22.31506100
  14.90224500 15.66053800 23.43954700
 


--------------------------------------------------------------------------------------------------------


 k-point  1 :   0.0000 0.0000 0.0000  plane waves:  490521

 maximum and minimum number of plane-waves per node :    490521   490521

 maximum number of plane-waves:    490521
 maximum index in each direction: 
   IXMAX=   48   IYMAX=   48   IZMAX=   48
   IXMIN=  -48   IYMIN=  -48   IZMIN=  -48


 serial   3D FFT for wavefunctions
 parallel 3D FFT for charge:
    minimum data exchange during FFTs selected (reduces bandwidth)


 total amount of memory used by VASP MPI-rank0  5486941. kBytes
=======================================================================

   base      :      30000. kBytes
   nonlr-proj:      17126. kBytes
   fftplans  :     924480. kBytes
   grid      :    1872000. kBytes
   one-center:        886. kBytes
   wavefun   :    2642449. kBytes
 
     INWAV:  cpu time    0.0001: real time    0.0005
 Broyden mixing: mesh for mixing (old mesh)
   NGX = 97   NGY = 97   NGZ = 97
  (NGX  =300   NGY  =300   NGZ  =300)
  gives a total of 912673 points

 initial charge density was supplied:
 charge density of overlapping atoms calculated
 number of electron     560.0000000 magnetization 
 keeping initial charge density in first step


--------------------------------------------------------------------------------------------------------


 Maximum index for non-local projection operator         1763
 Maximum index for augmentation-charges         5898 (set IRDMAX)


--------------------------------------------------------------------------------------------------------


 First call to EWALD:  gamma=   0.059
 Maximum number of real-space cells 3x 3x 3
 Maximum number of reciprocal cells 3x 3x 3

    FEWALD:  cpu time    0.0131: real time    0.0131


--------------------------------------- Iteration      1(   1)  ---------------------------------------


    POTLOK:  cpu time   13.9479: real time   13.9520
    SETDIJ:  cpu time    0.1096: real time    0.1096
     EDDAV:  cpu time  363.0289: real time  363.0920
       DOS:  cpu time    0.0012: real time    0.0012
    --------------------------------------------
      LOOP:  cpu time  377.0876: real time  377.1549

 eigenvalue-minimisations  :   688
 total energy-change (2. order) : 0.4383684E+04  (-0.1004810E+05)
 number of electron     560.0000000 magnetization 
 augmentation part      560.0000000 magnetization 

 Free energy of the ion-electron system (eV)
  ---------------------------------------------------
  alpha Z        PSCENC =        75.25431677
  Ewald energy   TEWEN  =    138125.92324321
  -Hartree energ DENC   =   -181492.86454447
  -exchange      EXHF   =         0.00000000
  -V(xc)+E(xc)   XCENC  =     -1703.82009411
  PAW double counting   =     44873.02882129   -41398.84523641
  entropy T*S    EENTRO =         0.02087290
  eigenvalues    EBANDS =       818.48160396
  atomic energy  EATOM  =     45086.50549395
  Solvation  Ediel_sol  =         0.00000000
  ---------------------------------------------------
  free energy    TOTEN  =      4383.68447709 eV

  energy without entropy =     4383.66360420  energy(sigma->0) =     4383.67925887


--------------------------------------------------------------------------------------------------------




--------------------------------------- Iteration      1(   2)  ---------------------------------------


     EDDAV:  cpu time  578.3377: real time  578.3395
       DOS:  cpu time    0.0011: real time    0.0011
    --------------------------------------------
      LOOP:  cpu time  578.3388: real time  578.3406

 eigenvalue-minimisations  :  1208
 total energy-change (2. order) :-0.2354253E+04  (-0.2113739E+04)
 number of electron     560.0000000 magnetization 
 augmentation part      560.0000000 magnetization 

 Free energy of the ion-electron system (eV)
  ---------------------------------------------------
  alpha Z        PSCENC =        75.25431677
  Ewald energy   TEWEN  =    138125.92324321
  -Hartree energ DENC   =   -181492.86454447
  -exchange      EXHF   =         0.00000000
  -V(xc)+E(xc)   XCENC  =     -1703.82009411
  PAW double counting   =     44873.02882129   -41398.84523641
  entropy T*S    EENTRO =         0.00154089
  eigenvalues    EBANDS =     -1535.75165553
  atomic energy  EATOM  =     45086.50549395
  Solvation  Ediel_sol  =         0.00000000
  ---------------------------------------------------
  free energy    TOTEN  =      2029.43188559 eV

  energy without entropy =     2029.43034471  energy(sigma->0) =     2029.43150037


--------------------------------------------------------------------------------------------------------




--------------------------------------- Iteration      1(   3)  ---------------------------------------


     EDDAV:  cpu time  491.3922: real time  491.3921
       DOS:  cpu time    0.0009: real time    0.0009
    --------------------------------------------
      LOOP:  cpu time  491.3931: real time  491.3930

 eigenvalue-minimisations  :  1000
 total energy-change (2. order) :-0.1788131E+04  (-0.1675155E+04)
 number of electron     560.0000000 magnetization 
 augmentation part      560.0000000 magnetization 

 Free energy of the ion-electron system (eV)
  ---------------------------------------------------
  alpha Z        PSCENC =        75.25431677
  Ewald energy   TEWEN  =    138125.92324321
  -Hartree energ DENC   =   -181492.86454447
  -exchange      EXHF   =         0.00000000
  -V(xc)+E(xc)   XCENC  =     -1703.82009411
  PAW double counting   =     44873.02882129   -41398.84523641
  entropy T*S    EENTRO =         0.04749969
  eigenvalues    EBANDS =     -3323.92857251
  atomic energy  EATOM  =     45086.50549395
  Solvation  Ediel_sol  =         0.00000000
  ---------------------------------------------------
  free energy    TOTEN  =       241.30092742 eV

  energy without entropy =      241.25342772  energy(sigma->0) =      241.28905249


--------------------------------------------------------------------------------------------------------




--------------------------------------- Iteration      1(   4)  ---------------------------------------


     EDDAV:  cpu time  428.0652: real time  428.0684
       DOS:  cpu time    0.0010: real time    0.0010
    --------------------------------------------
      LOOP:  cpu time  428.0662: real time  428.0694

 eigenvalue-minimisations  :   824
 total energy-change (2. order) :-0.3733139E+03  (-0.3153035E+03)
 number of electron     560.0000000 magnetization 
 augmentation part      560.0000000 magnetization 

 Free energy of the ion-electron system (eV)
  ---------------------------------------------------
  alpha Z        PSCENC =        75.25431677
  Ewald energy   TEWEN  =    138125.92324321
  -Hartree energ DENC   =   -181492.86454447
  -exchange      EXHF   =         0.00000000
  -V(xc)+E(xc)   XCENC  =     -1703.82009411
  PAW double counting   =     44873.02882129   -41398.84523641
  entropy T*S    EENTRO =        -0.03726739
  eigenvalues    EBANDS =     -3697.15774517
  atomic energy  EATOM  =     45086.50549395
  Solvation  Ediel_sol  =         0.00000000
  ---------------------------------------------------
  free energy    TOTEN  =      -132.01301232 eV

  energy without entropy =     -131.97574494  energy(sigma->0) =     -132.00369547


--------------------------------------------------------------------------------------------------------




--------------------------------------- Iteration      1(   5)  ---------------------------------------


     EDDAV:  cpu time  521.2052: real time  521.2120
       DOS:  cpu time    0.0014: real time    0.0014
    CHARGE:  cpu time   27.1040: real time   27.1036
    MIXING:  cpu time    0.4346: real time    0.4345
    --------------------------------------------
      LOOP:  cpu time  548.7451: real time  548.7515

 eigenvalue-minimisations  :  1040
 total energy-change (2. order) :-0.4663766E+02  (-0.3820243E+02)
 number of electron     559.9999838 magnetization 
 augmentation part      245.1950813 magnetization 

 Broyden mixing:
  rms(total) = 0.13868E+01    rms(broyden)= 0.13858E+01
  rms(prec ) = 0.14929E+01
  weight for this iteration     100.00

 Free energy of the ion-electron system (eV)
  ---------------------------------------------------
  alpha Z        PSCENC =        75.25431677
  Ewald energy   TEWEN  =    138125.92324321
  -Hartree energ DENC   =   -181492.86454447
  -exchange      EXHF   =         0.00000000
  -V(xc)+E(xc)   XCENC  =     -1703.82009411
  PAW double counting   =     44873.02882129   -41398.84523641
  entropy T*S    EENTRO =         0.49433104
  eigenvalues    EBANDS =     -3744.32700599
  atomic energy  EATOM  =     45086.50549395
  Solvation  Ediel_sol  =         0.00000000
  ---------------------------------------------------
  free energy    TOTEN  =      -178.65067472 eV

  energy without entropy =     -179.14500576  energy(sigma->0) =     -178.77425748


--------------------------------------------------------------------------------------------------------




--------------------------------------- Iteration      1(   6)  ---------------------------------------


    POTLOK:  cpu time   13.5648: real time   13.5684
    SETDIJ:  cpu time    0.1156: real time    0.1156
    EDDIAG:  cpu time   68.4380: real time   68.4385
  RMM-DIIS:  cpu time  190.6773: real time  190.6848
    ORTHCH:  cpu time   13.3612: real time   13.3611
       DOS:  cpu time    0.0013: real time    0.0013
    CHARGE:  cpu time   26.3045: real time   26.3045
    MIXING:  cpu time    0.4362: real time    0.4362
    --------------------------------------------
      LOOP:  cpu time  312.8990: real time  312.9105

 eigenvalue-minimisations  :   722
 total energy-change (2. order) : 0.4659243E+00  (-0.5287132E+01)
 number of electron     559.9999855 magnetization 
 augmentation part      240.5330103 magnetization 

 Broyden mixing:
  rms(total) = 0.20242E+01    rms(broyden)= 0.20240E+01
  rms(prec ) = 0.23150E+01
  weight for this iteration     100.00

 eigenvalues of (default mixing * dielectric matrix)
  average eigenvalue GAMMA=   0.3559
  0.3559

 Free energy of the ion-electron system (eV)
  ---------------------------------------------------
  alpha Z        PSCENC =        75.25431677
  Ewald energy   TEWEN  =    138125.92324321
  -Hartree energ DENC   =   -181904.74454885
  -exchange      EXHF   =         0.00000000
  -V(xc)+E(xc)   XCENC  =     -1697.59280631
  PAW double counting   =     45621.44653670   -42120.21467817
  entropy T*S    EENTRO =        -0.31766985
  eigenvalues    EBANDS =     -3364.44463790
  atomic energy  EATOM  =     45086.50549395
  Solvation  Ediel_sol  =         0.00000000
  ---------------------------------------------------
  free energy    TOTEN  =      -178.18475044 eV

  energy without entropy =     -177.86708059  energy(sigma->0) =     -178.10533298


--------------------------------------------------------------------------------------------------------




--------------------------------------- Iteration      1(   7)  ---------------------------------------


    POTLOK:  cpu time   13.5005: real time   13.5017
    SETDIJ:  cpu time    0.1072: real time    0.1072
    EDDIAG:  cpu time   67.9782: real time   67.9783
  RMM-DIIS:  cpu time  225.7534: real time  225.7551
    ORTHCH:  cpu time   13.3655: real time   13.3653
       DOS:  cpu time    0.0013: real time    0.0013
    CHARGE:  cpu time   26.4491: real time   26.4489
    MIXING:  cpu time    0.5009: real time    0.5009
    --------------------------------------------
      LOOP:  cpu time  347.6561: real time  347.6586

 eigenvalue-minimisations  :   851
 total energy-change (2. order) :-0.1430025E+01  (-0.1937654E+01)
 number of electron     559.9999831 magnetization 
 augmentation part      240.6418846 magnetization 

 Broyden mixing:
  rms(total) = 0.17880E+01    rms(broyden)= 0.17878E+01
  rms(prec ) = 0.20630E+01
  weight for this iteration     100.00

 eigenvalues of (default mixing * dielectric matrix)
  average eigenvalue GAMMA=   0.3806
  0.5909  0.1702

 Free energy of the ion-electron system (eV)
  ---------------------------------------------------
  alpha Z        PSCENC =        75.25431677
  Ewald energy   TEWEN  =    138125.92324321
  -Hartree energ DENC   =   -181992.51760260
  -exchange      EXHF   =         0.00000000
  -V(xc)+E(xc)   XCENC  =     -1697.79263099
  PAW double counting   =     45685.71057145   -42181.67777443
  entropy T*S    EENTRO =        -0.08844092
  eigenvalues    EBANDS =     -3280.93195191
  atomic energy  EATOM  =     45086.50549395
  Solvation  Ediel_sol  =         0.00000000
  ---------------------------------------------------
  free energy    TOTEN  =      -179.61477547 eV

  energy without entropy =     -179.52633455  energy(sigma->0) =     -179.59266524


--------------------------------------------------------------------------------------------------------




--------------------------------------- Iteration      1(   8)  ---------------------------------------


    POTLOK:  cpu time   13.6328: real time   13.6363
    SETDIJ:  cpu time    0.1128: real time    0.1128
    EDDIAG:  cpu time   66.8024: real time   66.8026
  RMM-DIIS:  cpu time  203.1188: real time  203.1195
    ORTHCH:  cpu time   13.1847: real time   13.1845
       DOS:  cpu time    0.0013: real time    0.0013
    CHARGE:  cpu time   25.8623: real time   25.8621
    MIXING:  cpu time    0.4863: real time    0.4863
    --------------------------------------------
      LOOP:  cpu time  323.2014: real time  323.2055

 eigenvalue-minimisations  :   757
 total energy-change (2. order) :-0.3337227E+01  (-0.6703783E+00)
 number of electron     559.9999826 magnetization 
 augmentation part      240.5962807 magnetization 

 Broyden mixing:
  rms(total) = 0.27257E+01    rms(broyden)= 0.27254E+01
  rms(prec ) = 0.32584E+01
  weight for this iteration     100.00

 eigenvalues of (default mixing * dielectric matrix)
  average eigenvalue GAMMA=   0.3381
  0.7210  0.1491  0.1441

 Free energy of the ion-electron system (eV)
  ---------------------------------------------------
  alpha Z        PSCENC =        75.25431677
  Ewald energy   TEWEN  =    138125.92324321
  -Hartree energ DENC   =   -182025.61150895
  -exchange      EXHF   =         0.00000000
  -V(xc)+E(xc)   XCENC  =     -1697.63334981
  PAW double counting   =     45764.45807642   -42256.58411555
  entropy T*S    EENTRO =        -0.18885733
  eigenvalues    EBANDS =     -3255.07530107
  atomic energy  EATOM  =     45086.50549395
  Solvation  Ediel_sol  =         0.00000000
  ---------------------------------------------------
  free energy    TOTEN  =      -182.95200235 eV

  energy without entropy =     -182.76314502  energy(sigma->0) =     -182.90478802


--------------------------------------------------------------------------------------------------------




--------------------------------------- Iteration      1(   9)  ---------------------------------------


    POTLOK:  cpu time   13.4914: real time   13.4934
    SETDIJ:  cpu time    0.1075: real time    0.1075
    EDDIAG:  cpu time   65.5340: real time   65.5418
  RMM-DIIS:  cpu time  200.8584: real time  200.8597
    ORTHCH:  cpu time   12.7600: real time   12.7598
       DOS:  cpu time    0.0012: real time    0.0012
    CHARGE:  cpu time   26.1037: real time   26.1035
    MIXING:  cpu time    0.5201: real time    0.5201
    --------------------------------------------
      LOOP:  cpu time  319.3763: real time  319.3871

 eigenvalue-minimisations  :   747
 total energy-change (2. order) : 0.2993524E+01  (-0.3804940E+00)
 number of electron     559.9999835 magnetization 
 augmentation part      241.2257509 magnetization 

 Broyden mixing:
  rms(total) = 0.23022E+01    rms(broyden)= 0.23019E+01
  rms(prec ) = 0.26560E+01
  weight for this iteration     100.00

 eigenvalues of (default mixing * dielectric matrix)
  average eigenvalue GAMMA=   0.3072
  0.8052  0.1673  0.1673  0.0891

 Free energy of the ion-electron system (eV)
  ---------------------------------------------------
  alpha Z        PSCENC =        75.25431677
  Ewald energy   TEWEN  =    138125.92324321
  -Hartree energ DENC   =   -182055.17253964
  -exchange      EXHF   =         0.00000000
  -V(xc)+E(xc)   XCENC  =     -1697.53949689
  PAW double counting   =     45813.50909378   -42303.42062860
  entropy T*S    EENTRO =        -0.12664902
  eigenvalues    EBANDS =     -3224.89131215
  atomic energy  EATOM  =     45086.50549395
  Solvation  Ediel_sol  =         0.00000000
  ---------------------------------------------------
  free energy    TOTEN  =      -179.95847858 eV

  energy without entropy =     -179.83182956  energy(sigma->0) =     -179.92681633


--------------------------------------------------------------------------------------------------------




--------------------------------------- Iteration      1(  10)  ---------------------------------------


    POTLOK:  cpu time   12.9521: real time   12.9527
    SETDIJ:  cpu time    0.1116: real time    0.1116
    EDDIAG:  cpu time   66.4341: real time   66.4346
  RMM-DIIS:  cpu time  196.3297: real time  196.3309
    ORTHCH:  cpu time   13.3024: real time   13.3023
       DOS:  cpu time    0.0013: real time    0.0013
    CHARGE:  cpu time   26.0711: real time   26.0708
    MIXING:  cpu time    0.5508: real time    0.5508
    --------------------------------------------
      LOOP:  cpu time  315.7530: real time  315.7550

 eigenvalue-minimisations  :   733
 total energy-change (2. order) : 0.1639181E+01  (-0.2386170E+00)
 number of electron     559.9999848 magnetization 
 augmentation part      241.5056006 magnetization 

 Broyden mixing:
  rms(total) = 0.24040E+01    rms(broyden)= 0.24037E+01
  rms(prec ) = 0.28483E+01
  weight for this iteration     100.00

 eigenvalues of (default mixing * dielectric matrix)
  average eigenvalue GAMMA=   0.2786
  0.8599  0.1853  0.1853  0.0814  0.0814

 Free energy of the ion-electron system (eV)
  ---------------------------------------------------
  alpha Z        PSCENC =        75.25431677
  Ewald energy   TEWEN  =    138125.92324321
  -Hartree energ DENC   =   -182082.58328442
  -exchange      EXHF   =         0.00000000
  -V(xc)+E(xc)   XCENC  =     -1697.38728343
  PAW double counting   =     45850.80903075   -42338.98758173
  entropy T*S    EENTRO =         0.01865579
  eigenvalues    EBANDS =     -3197.87188894
  atomic energy  EATOM  =     45086.50549395
  Solvation  Ediel_sol  =         0.00000000
  ---------------------------------------------------
  free energy    TOTEN  =      -178.31929803 eV

  energy without entropy =     -178.33795383  energy(sigma->0) =     -178.32396198


--------------------------------------------------------------------------------------------------------




--------------------------------------- Iteration      1(  11)  ---------------------------------------


    POTLOK:  cpu time   13.0046: real time   13.0053
    SETDIJ:  cpu time    0.1094: real time    0.1094
    EDDIAG:  cpu time   66.1074: real time   66.1080
  RMM-DIIS:  cpu time  195.6587: real time  195.6655
    ORTHCH:  cpu time   12.9470: real time   12.9473
       DOS:  cpu time    0.0014: real time    0.0014
    CHARGE:  cpu time   25.5091: real time   25.5096
    MIXING:  cpu time    0.5665: real time    0.5665
    --------------------------------------------
      LOOP:  cpu time  313.9040: real time  313.9130

 eigenvalue-minimisations  :   730
 total energy-change (2. order) : 0.1164517E+01  (-0.1373207E+00)
 number of electron     559.9999859 magnetization 
 augmentation part      241.4837587 magnetization 

 Broyden mixing:
  rms(total) = 0.16823E+01    rms(broyden)= 0.16818E+01
  rms(prec ) = 0.20046E+01
  weight for this iteration     100.00

 eigenvalues of (default mixing * dielectric matrix)
  average eigenvalue GAMMA=   0.2641
  0.8927  0.2217  0.2217  0.0957  0.0957  0.0575

 Free energy of the ion-electron system (eV)
  ---------------------------------------------------
  alpha Z        PSCENC =        75.25431677
  Ewald energy   TEWEN  =    138125.92324321
  -Hartree energ DENC   =   -182101.91005520
  -exchange      EXHF   =         0.00000000
  -V(xc)+E(xc)   XCENC  =     -1697.26624330
  PAW double counting   =     45875.83375883   -42362.82559708
  entropy T*S    EENTRO =        -0.12602892
  eigenvalues    EBANDS =     -3178.54366930
  atomic energy  EATOM  =     45086.50549395
  Solvation  Ediel_sol  =         0.00000000
  ---------------------------------------------------
  free energy    TOTEN  =      -177.15478103 eV

  energy without entropy =     -177.02875211  energy(sigma->0) =     -177.12327380


--------------------------------------------------------------------------------------------------------




--------------------------------------- Iteration      1(  12)  ---------------------------------------


    POTLOK:  cpu time   13.1278: real time   13.1311
    SETDIJ:  cpu time    0.1137: real time    0.1137
    EDDIAG:  cpu time   66.3855: real time   66.3877
  RMM-DIIS:  cpu time  194.9933: real time  194.9986
    ORTHCH:  cpu time   13.4362: real time   13.4365
       DOS:  cpu time    0.0014: real time    0.0014
    CHARGE:  cpu time   25.5670: real time   25.5709
    MIXING:  cpu time    0.6228: real time    0.6229
    --------------------------------------------
      LOOP:  cpu time  314.2476: real time  314.2626

 eigenvalue-minimisations  :   729
 total energy-change (2. order) : 0.8755900E+00  (-0.9868812E-01)
 number of electron     559.9999849 magnetization 
 augmentation part      241.5404392 magnetization 

 Broyden mixing:
  rms(total) = 0.13654E+01    rms(broyden)= 0.13652E+01
  rms(prec ) = 0.16109E+01
  weight for this iteration     100.00

 eigenvalues of (default mixing * dielectric matrix)
  average eigenvalue GAMMA=   0.2643
  0.9502  0.2738  0.2738  0.1126  0.1126  0.0696  0.0577

 Free energy of the ion-electron system (eV)
  ---------------------------------------------------
  alpha Z        PSCENC =        75.25431677
  Ewald energy   TEWEN  =    138125.92324321
  -Hartree energ DENC   =   -182118.50078109
  -exchange      EXHF   =         0.00000000
  -V(xc)+E(xc)   XCENC  =     -1697.09609923
  PAW double counting   =     45898.54950147   -42384.37054693
  entropy T*S    EENTRO =        -0.12248783
  eigenvalues    EBANDS =     -3162.42183133
  atomic energy  EATOM  =     45086.50549395
  Solvation  Ediel_sol  =         0.00000000
  ---------------------------------------------------
  free energy    TOTEN  =      -176.27919100 eV

  energy without entropy =     -176.15670317  energy(sigma->0) =     -176.24856904


--------------------------------------------------------------------------------------------------------




--------------------------------------- Iteration      1(  13)  ---------------------------------------


    POTLOK:  cpu time   13.2138: real time   13.2146
    SETDIJ:  cpu time    0.1140: real time    0.1140
    EDDIAG:  cpu time   66.1724: real time   66.1775
  RMM-DIIS:  cpu time  192.5093: real time  192.5165
    ORTHCH:  cpu time   13.1480: real time   13.1483
       DOS:  cpu time    0.0013: real time    0.0013
    CHARGE:  cpu time   25.2023: real time   25.2027
    MIXING:  cpu time    0.6646: real time    0.6647
    --------------------------------------------
      LOOP:  cpu time  311.0257: real time  311.0396

 eigenvalue-minimisations  :   716
 total energy-change (2. order) : 0.3439991E+00  (-0.1094489E+00)
 number of electron     559.9999836 magnetization 
 augmentation part      241.6245118 magnetization 

 Broyden mixing:
  rms(total) = 0.15550E+01    rms(broyden)= 0.15547E+01
  rms(prec ) = 0.18251E+01
  weight for this iteration     100.00

 eigenvalues of (default mixing * dielectric matrix)
  average eigenvalue GAMMA=   0.2781
  1.0334  0.4568  0.2718  0.1240  0.1240  0.0826  0.0826  0.0500

 Free energy of the ion-electron system (eV)
  ---------------------------------------------------
  alpha Z        PSCENC =        75.25431677
  Ewald energy   TEWEN  =    138125.92324321
  -Hartree energ DENC   =   -182140.35917127
  -exchange      EXHF   =         0.00000000
  -V(xc)+E(xc)   XCENC  =     -1696.77884307
  PAW double counting   =     45933.58500073   -42417.55724503
  entropy T*S    EENTRO =        -0.00116732
  eigenvalues    EBANDS =     -3142.50681984
  atomic energy  EATOM  =     45086.50549395
  Solvation  Ediel_sol  =         0.00000000
  ---------------------------------------------------
  free energy    TOTEN  =      -175.93519186 eV

  energy without entropy =     -175.93402455  energy(sigma->0) =     -175.93490004


--------------------------------------------------------------------------------------------------------




--------------------------------------- Iteration      1(  14)  ---------------------------------------


    POTLOK:  cpu time   13.0918: real time   13.0951
    SETDIJ:  cpu time    0.1093: real time    0.1093
    EDDIAG:  cpu time   66.2319: real time   66.2348
  RMM-DIIS:  cpu time  190.9479: real time  190.9603
    ORTHCH:  cpu time   13.1825: real time   13.1829
       DOS:  cpu time    0.0013: real time    0.0013
    CHARGE:  cpu time   25.4680: real time   25.4685
    MIXING:  cpu time    0.7247: real time    0.7247
    --------------------------------------------
      LOOP:  cpu time  309.7574: real time  309.7767

 eigenvalue-minimisations  :   715
 total energy-change (2. order) : 0.1299940E+00  (-0.1077265E+00)
 number of electron     559.9999836 magnetization 
 augmentation part      241.4896761 magnetization 

 Broyden mixing:
  rms(total) = 0.14196E+01    rms(broyden)= 0.14193E+01
  rms(prec ) = 0.16390E+01
  weight for this iteration     100.00

 eigenvalues of (default mixing * dielectric matrix)
  average eigenvalue GAMMA=   0.2998
  1.1601  0.7391  0.2113  0.1267  0.1267  0.1058  0.1058  0.0727  0.0497

 Free energy of the ion-electron system (eV)
  ---------------------------------------------------
  alpha Z        PSCENC =        75.25431677
  Ewald energy   TEWEN  =    138125.92324321
  -Hartree energ DENC   =   -182174.06079878
  -exchange      EXHF   =         0.00000000
  -V(xc)+E(xc)   XCENC  =     -1696.28354533
  PAW double counting   =     45982.11916018   -42463.46066579
  entropy T*S    EENTRO =        -0.06149172
  eigenvalues    EBANDS =     -3111.74091035
  atomic energy  EATOM  =     45086.50549395
  Solvation  Ediel_sol  =         0.00000000
  ---------------------------------------------------
  free energy    TOTEN  =      -175.80519785 eV

  energy without entropy =     -175.74370613  energy(sigma->0) =     -175.78982492


--------------------------------------------------------------------------------------------------------




--------------------------------------- Iteration      1(  15)  ---------------------------------------


    POTLOK:  cpu time   13.0823: real time   13.0831
    SETDIJ:  cpu time    0.1081: real time    0.1081
    EDDIAG:  cpu time   66.1277: real time   66.1308
  RMM-DIIS:  cpu time  192.5235: real time  192.5346
    ORTHCH:  cpu time   12.9629: real time   12.9631
       DOS:  cpu time    0.0013: real time    0.0013
    CHARGE:  cpu time   24.9005: real time   24.9017
    MIXING:  cpu time    0.7924: real time    0.7924
    --------------------------------------------
      LOOP:  cpu time  310.4987: real time  310.5152

 eigenvalue-minimisations  :   720
 total energy-change (2. order) :-0.2690800E+00  (-0.9117555E-01)
 number of electron     559.9999827 magnetization 
 augmentation part      241.0855248 magnetization 

 Broyden mixing:
  rms(total) = 0.18658E+01    rms(broyden)= 0.18655E+01
  rms(prec ) = 0.22383E+01
  weight for this iteration     100.00

 eigenvalues of (default mixing * dielectric matrix)
  average eigenvalue GAMMA=   0.3020
  1.3192  0.8033  0.1931  0.1931  0.1215  0.1215  0.0786  0.0701  0.0701  0.0493

 Free energy of the ion-electron system (eV)
  ---------------------------------------------------
  alpha Z        PSCENC =        75.25431677
  Ewald energy   TEWEN  =    138125.92324321
  -Hartree energ DENC   =   -182221.53002053
  -exchange      EXHF   =         0.00000000
  -V(xc)+E(xc)   XCENC  =     -1695.72401034
  PAW double counting   =     46035.01216316   -42513.39193451
  entropy T*S    EENTRO =         0.06454948
  eigenvalues    EBANDS =     -3068.18807906
  atomic energy  EATOM  =     45086.50549395
  Solvation  Ediel_sol  =         0.00000000
  ---------------------------------------------------
  free energy    TOTEN  =      -176.07427786 eV

  energy without entropy =     -176.13882734  energy(sigma->0) =     -176.09041523


--------------------------------------------------------------------------------------------------------




--------------------------------------- Iteration      1(  16)  ---------------------------------------


    POTLOK:  cpu time   12.9926: real time   12.9937
    SETDIJ:  cpu time    0.1117: real time    0.1117
    EDDIAG:  cpu time   64.4938: real time   64.4968
  RMM-DIIS:  cpu time  189.5366: real time  189.5466
    ORTHCH:  cpu time   12.8308: real time   12.8310
       DOS:  cpu time    0.0013: real time    0.0013
    CHARGE:  cpu time   25.1437: real time   25.1442
    MIXING:  cpu time    0.8129: real time    0.8129
    --------------------------------------------
      LOOP:  cpu time  305.9233: real time  305.9382

 eigenvalue-minimisations  :   725
 total energy-change (2. order) : 0.4483500E+00  (-0.6022656E-01)
 number of electron     559.9999834 magnetization 
 augmentation part      241.0559834 magnetization 

 Broyden mixing:
  rms(total) = 0.15249E+01    rms(broyden)= 0.15247E+01
  rms(prec ) = 0.18284E+01
  weight for this iteration     100.00

 eigenvalues of (default mixing * dielectric matrix)
  average eigenvalue GAMMA=   0.3086
  1.5143  0.8304  0.2315  0.2315  0.1238  0.1238  0.0854  0.0854  0.0682  0.0526
  0.0475

 Free energy of the ion-electron system (eV)
  ---------------------------------------------------
  alpha Z        PSCENC =        75.25431677
  Ewald energy   TEWEN  =    138125.92324321
  -Hartree energ DENC   =   -182241.24840777
  -exchange      EXHF   =         0.00000000
  -V(xc)+E(xc)   XCENC  =     -1695.40337011
  PAW double counting   =     46062.46581129   -42539.23162194
  entropy T*S    EENTRO =        -0.01630791
  eigenvalues    EBANDS =     -3049.87508535
  atomic energy  EATOM  =     45086.50549395
  Solvation  Ediel_sol  =         0.00000000
  ---------------------------------------------------
  free energy    TOTEN  =      -175.62592784 eV

  energy without entropy =     -175.60961994  energy(sigma->0) =     -175.62185087


--------------------------------------------------------------------------------------------------------




--------------------------------------- Iteration      1(  17)  ---------------------------------------


    POTLOK:  cpu time   13.2787: real time   13.2830
    SETDIJ:  cpu time    0.1064: real time    0.1064
    EDDIAG:  cpu time   66.0829: real time   66.0865
  RMM-DIIS:  cpu time  190.5029: real time  190.5098
    ORTHCH:  cpu time   12.5558: real time   12.5561
       DOS:  cpu time    0.0013: real time    0.0013
    CHARGE:  cpu time   25.6414: real time   25.6419
    MIXING:  cpu time    0.9033: real time    0.9033
    --------------------------------------------
      LOOP:  cpu time  309.0728: real time  309.0883

 eigenvalue-minimisations  :   718
 total energy-change (2. order) : 0.2815011E+00  (-0.5447359E-01)
 number of electron     559.9999853 magnetization 
 augmentation part      241.1080730 magnetization 

 Broyden mixing:
  rms(total) = 0.13306E+01    rms(broyden)= 0.13304E+01
  rms(prec ) = 0.15541E+01
  weight for this iteration     100.00

 eigenvalues of (default mixing * dielectric matrix)
  average eigenvalue GAMMA=   0.3165
  1.6653  0.9013  0.2777  0.2777  0.1265  0.1265  0.0932  0.0932  0.0713  0.0713
  0.0502  0.0436

 Free energy of the ion-electron system (eV)
  ---------------------------------------------------
  alpha Z        PSCENC =        75.25431677
  Ewald energy   TEWEN  =    138125.92324321
  -Hartree energ DENC   =   -182257.57586295
  -exchange      EXHF   =         0.00000000
  -V(xc)+E(xc)   XCENC  =     -1695.13292834
  PAW double counting   =     46085.38049983   -42560.70575716
  entropy T*S    EENTRO =         0.07790389
  eigenvalues    EBANDS =     -3035.07133598
  atomic energy  EATOM  =     45086.50549395
  Solvation  Ediel_sol  =         0.00000000
  ---------------------------------------------------
  free energy    TOTEN  =      -175.34442677 eV

  energy without entropy =     -175.42233066  energy(sigma->0) =     -175.36390274


--------------------------------------------------------------------------------------------------------




--------------------------------------- Iteration      1(  18)  ---------------------------------------


    POTLOK:  cpu time   13.3363: real time   13.3374
    SETDIJ:  cpu time    0.1166: real time    0.1166
    EDDIAG:  cpu time   66.0233: real time   66.0254
  RMM-DIIS:  cpu time  188.0287: real time  188.0353
    ORTHCH:  cpu time   12.6415: real time   12.6416
       DOS:  cpu time    0.0013: real time    0.0013
    CHARGE:  cpu time   25.8810: real time   25.8815
    MIXING:  cpu time    1.0410: real time    1.0410
    --------------------------------------------
      LOOP:  cpu time  307.0697: real time  307.0803

 eigenvalue-minimisations  :   711
 total energy-change (2. order) : 0.5018850E+00  (-0.4579344E-01)
 number of electron     559.9999857 magnetization 
 augmentation part      241.0857611 magnetization 

 Broyden mixing:
  rms(total) = 0.10894E+01    rms(broyden)= 0.10892E+01
  rms(prec ) = 0.12616E+01
  weight for this iteration     100.00

 eigenvalues of (default mixing * dielectric matrix)
  average eigenvalue GAMMA=   0.3183
  1.7708  0.9573  0.3152  0.3152  0.1299  0.1299  0.1006  0.1006  0.0759  0.0759
  0.0752  0.0501  0.0414

 Free energy of the ion-electron system (eV)
  ---------------------------------------------------
  alpha Z        PSCENC =        75.25431677
  Ewald energy   TEWEN  =    138125.92324321
  -Hartree energ DENC   =   -182282.31282456
  -exchange      EXHF   =         0.00000000
  -V(xc)+E(xc)   XCENC  =     -1694.86907999
  PAW double counting   =     46105.53523190   -42579.42728606
  entropy T*S    EENTRO =         0.01665087
  eigenvalues    EBANDS =     -3011.46828790
  atomic energy  EATOM  =     45086.50549395
  Solvation  Ediel_sol  =         0.00000000
  ---------------------------------------------------
  free energy    TOTEN  =      -174.84254180 eV

  energy without entropy =     -174.85919267  energy(sigma->0) =     -174.84670452


--------------------------------------------------------------------------------------------------------




--------------------------------------- Iteration      1(  19)  ---------------------------------------


    POTLOK:  cpu time   13.3600: real time   13.3628
    SETDIJ:  cpu time    0.1083: real time    0.1083
    EDDIAG:  cpu time   65.8711: real time   65.8728
  RMM-DIIS:  cpu time  185.6440: real time  185.6536
    ORTHCH:  cpu time   13.0859: real time   13.0862
       DOS:  cpu time    0.0013: real time    0.0013
    CHARGE:  cpu time   25.3630: real time   25.3638
    MIXING:  cpu time    0.9915: real time    0.9915
    --------------------------------------------
      LOOP:  cpu time  304.4252: real time  304.4403

 eigenvalue-minimisations  :   705
 total energy-change (2. order) : 0.2160587E+00  (-0.3490666E-01)
 number of electron     559.9999845 magnetization 
 augmentation part      241.1056117 magnetization 

 Broyden mixing:
  rms(total) = 0.66768E+00    rms(broyden)= 0.66750E+00
  rms(prec ) = 0.75582E+00
  weight for this iteration     100.00

 eigenvalues of (default mixing * dielectric matrix)
  average eigenvalue GAMMA=   0.3384
  1.9387  1.1120  0.3641  0.3641  0.1874  0.1314  0.1314  0.0934  0.0934  0.0890
  0.0709  0.0709  0.0498  0.0411

 Free energy of the ion-electron system (eV)
  ---------------------------------------------------
  alpha Z        PSCENC =        75.25431677
  Ewald energy   TEWEN  =    138125.92324321
  -Hartree energ DENC   =   -182296.75205299
  -exchange      EXHF   =         0.00000000
  -V(xc)+E(xc)   XCENC  =     -1694.71116575
  PAW double counting   =     46114.14529221   -42587.13218871
  entropy T*S    EENTRO =        -0.02712687
  eigenvalues    EBANDS =     -2997.83229491
  atomic energy  EATOM  =     45086.50549395
  Solvation  Ediel_sol  =         0.00000000
  ---------------------------------------------------
  free energy    TOTEN  =      -174.62648310 eV

  energy without entropy =     -174.59935622  energy(sigma->0) =     -174.61970138


--------------------------------------------------------------------------------------------------------




--------------------------------------- Iteration      1(  20)  ---------------------------------------


    POTLOK:  cpu time   13.0078: real time   13.0091
    SETDIJ:  cpu time    0.1110: real time    0.1110
    EDDIAG:  cpu time   65.5674: real time   65.5687
  RMM-DIIS:  cpu time  189.6145: real time  189.6217
    ORTHCH:  cpu time   12.7982: real time   12.7985
       DOS:  cpu time    0.0013: real time    0.0013
    CHARGE:  cpu time   25.2561: real time   25.2566
    MIXING:  cpu time    1.0568: real time    1.0569
    --------------------------------------------
      LOOP:  cpu time  307.4131: real time  307.4238

 eigenvalue-minimisations  :   714
 total energy-change (2. order) : 0.1120898E+00  (-0.2944277E-01)
 number of electron     559.9999857 magnetization 
 augmentation part      241.0305324 magnetization 

 Broyden mixing:
  rms(total) = 0.61841E+00    rms(broyden)= 0.61815E+00
  rms(prec ) = 0.71144E+00
  weight for this iteration     100.00

 eigenvalues of (default mixing * dielectric matrix)
  average eigenvalue GAMMA=   0.3419
  2.0024  1.1713  0.5025  0.2810  0.2810  0.1321  0.1321  0.1025  0.1025  0.0942
  0.0942  0.0709  0.0709  0.0498  0.0411

 Free energy of the ion-electron system (eV)
  ---------------------------------------------------
  alpha Z        PSCENC =        75.25431677
  Ewald energy   TEWEN  =    138125.92324321
  -Hartree energ DENC   =   -182330.18597477
  -exchange      EXHF   =         0.00000000
  -V(xc)+E(xc)   XCENC  =     -1694.39619905
  PAW double counting   =     46124.53651049   -42595.89555700
  entropy T*S    EENTRO =        -0.05336212
  eigenvalues    EBANDS =     -2966.20286476
  atomic energy  EATOM  =     45086.50549395
  Solvation  Ediel_sol  =         0.00000000
  ---------------------------------------------------
  free energy    TOTEN  =      -174.51439328 eV

  energy without entropy =     -174.46103116  energy(sigma->0) =     -174.50105275


--------------------------------------------------------------------------------------------------------




--------------------------------------- Iteration      1(  21)  ---------------------------------------


    POTLOK:  cpu time   13.1051: real time   13.1064
    SETDIJ:  cpu time    0.1112: real time    0.1112
    EDDIAG:  cpu time   65.7102: real time   65.7142
  RMM-DIIS:  cpu time  185.8702: real time  185.8787
    ORTHCH:  cpu time   12.8691: real time   12.8695
       DOS:  cpu time    0.0013: real time    0.0013
    CHARGE:  cpu time   25.5288: real time   25.5293
    MIXING:  cpu time    1.1243: real time    1.1243
    --------------------------------------------
      LOOP:  cpu time  304.3204: real time  304.3350

 eigenvalue-minimisations  :   710
 total energy-change (2. order) : 0.3090677E-01  (-0.1882291E-01)
 number of electron     559.9999847 magnetization 
 augmentation part      241.1267568 magnetization 

 Broyden mixing:
  rms(total) = 0.64180E+00    rms(broyden)= 0.64160E+00
  rms(prec ) = 0.74039E+00
  weight for this iteration     100.00

 eigenvalues of (default mixing * dielectric matrix)
  average eigenvalue GAMMA=   0.3529
  2.0545  1.2703  0.6593  0.3217  0.3217  0.1647  0.1290  0.1290  0.0933  0.0933
  0.0892  0.0892  0.0698  0.0698  0.0498  0.0411

 Free energy of the ion-electron system (eV)
  ---------------------------------------------------
  alpha Z        PSCENC =        75.25431677
  Ewald energy   TEWEN  =    138125.92324321
  -Hartree energ DENC   =   -182339.68123098
  -exchange      EXHF   =         0.00000000
  -V(xc)+E(xc)   XCENC  =     -1694.28661546
  PAW double counting   =     46121.54525893   -42592.42865080
  entropy T*S    EENTRO =        -0.09062132
  eigenvalues    EBANDS =     -2957.22468082
  atomic energy  EATOM  =     45086.50549395
  Solvation  Ediel_sol  =         0.00000000
  ---------------------------------------------------
  free energy    TOTEN  =      -174.48348651 eV

  energy without entropy =     -174.39286519  energy(sigma->0) =     -174.46083118


--------------------------------------------------------------------------------------------------------




--------------------------------------- Iteration      1(  22)  ---------------------------------------


    POTLOK:  cpu time   13.1876: real time   13.1915
    SETDIJ:  cpu time    0.1125: real time    0.1125
    EDDIAG:  cpu time   66.8930: real time   66.8951
  RMM-DIIS:  cpu time  184.2939: real time  184.3011
    ORTHCH:  cpu time   12.9170: real time   12.9172
       DOS:  cpu time    0.0014: real time    0.0014
    CHARGE:  cpu time   26.1239: real time   26.1246
    MIXING:  cpu time    1.2669: real time    1.2669
    --------------------------------------------
      LOOP:  cpu time  304.7961: real time  304.8103

 eigenvalue-minimisations  :   706
 total energy-change (2. order) : 0.2616825E-01  (-0.1636556E-01)
 number of electron     559.9999850 magnetization 
 augmentation part      241.1462917 magnetization 

 Broyden mixing:
  rms(total) = 0.68656E+00    rms(broyden)= 0.68641E+00
  rms(prec ) = 0.78779E+00
  weight for this iteration     100.00

 eigenvalues of (default mixing * dielectric matrix)
  average eigenvalue GAMMA=   0.3534
  2.1410  1.3539  0.6805  0.3403  0.3403  0.2084  0.1299  0.1299  0.0929  0.0929
  0.0977  0.0977  0.0697  0.0697  0.0719  0.0498  0.0411

 Free energy of the ion-electron system (eV)
  ---------------------------------------------------
  alpha Z        PSCENC =        75.25431677
  Ewald energy   TEWEN  =    138125.92324321
  -Hartree energ DENC   =   -182352.26430113
  -exchange      EXHF   =         0.00000000
  -V(xc)+E(xc)   XCENC  =     -1694.12831370
  PAW double counting   =     46118.01578977   -42588.37439560
  entropy T*S    EENTRO =        -0.05341569
  eigenvalues    EBANDS =     -2945.33573585
  atomic energy  EATOM  =     45086.50549395
  Solvation  Ediel_sol  =         0.00000000
  ---------------------------------------------------
  free energy    TOTEN  =      -174.45731827 eV

  energy without entropy =     -174.40390258  energy(sigma->0) =     -174.44396435


--------------------------------------------------------------------------------------------------------




--------------------------------------- Iteration      1(  23)  ---------------------------------------


    POTLOK:  cpu time   13.3507: real time   13.3520
    SETDIJ:  cpu time    0.1106: real time    0.1106
    EDDIAG:  cpu time   67.0578: real time   67.0593
  RMM-DIIS:  cpu time  183.7407: real time  183.7471
    ORTHCH:  cpu time   13.0801: real time   13.0804
       DOS:  cpu time    0.0014: real time    0.0014
    CHARGE:  cpu time   26.4684: real time   26.4690
    MIXING:  cpu time    1.3916: real time    1.3916
    --------------------------------------------
      LOOP:  cpu time  305.2013: real time  305.2114

 eigenvalue-minimisations  :   704
 total energy-change (2. order) : 0.7456249E-01  (-0.1229241E-01)
 number of electron     559.9999844 magnetization 
 augmentation part      241.1200820 magnetization 

 Broyden mixing:
  rms(total) = 0.60535E+00    rms(broyden)= 0.60521E+00
  rms(prec ) = 0.70389E+00
  weight for this iteration     100.00

 eigenvalues of (default mixing * dielectric matrix)
  average eigenvalue GAMMA=   0.3463
  2.1977  1.3480  0.6871  0.3214  0.3214  0.3168  0.1310  0.1310  0.1134  0.0947
[...]
 -0.006  -0.012   0.004   0.004   0.006  -0.006  -0.012   0.004
 -0.011  -0.021   0.006   0.007   0.009  -0.010  -0.020   0.006
 -0.015  -0.005   0.013   0.000   0.022  -0.014  -0.005   0.012
  0.000  -0.023  -0.006  -0.015  -0.000   0.000  -0.022  -0.006
 -0.022   0.000   0.009  -0.005  -0.016  -0.021   0.000   0.008
 -0.017  -0.006   0.015   0.000   0.027  -0.017  -0.006   0.015
  0.000  -0.027  -0.007  -0.018  -0.000   0.000  -0.027  -0.007
 -0.027   0.000   0.010  -0.006  -0.019  -0.026   0.000   0.010
 total augmentation occupancy for first ion, spin component:           1
  1.537  -0.028   0.005   0.016   0.024   0.076  -0.008  -0.002   0.036  -0.010   0.091  -0.031   0.012   0.002   0.002  -0.019
 -0.028   1.399   0.028   0.070  -0.002  -0.007   0.072   0.011  -0.014  -0.007   0.223  -0.067   0.019   0.003   0.003  -0.006
  0.005   0.028   1.543   0.001   0.002  -0.002   0.013   0.074  -0.012   0.017  -0.053   0.018  -0.003  -0.006  -0.005   0.016
  0.016   0.070   0.001   1.336   0.043   0.033  -0.013  -0.012   0.092  -0.023  -0.080   0.020  -0.001  -0.008  -0.003   0.001
  0.024  -0.002   0.002   0.043   1.440  -0.010  -0.008   0.016  -0.022   0.067  -0.096   0.031  -0.003  -0.009  -0.010   0.026
  0.076  -0.007  -0.002   0.033  -0.010   0.217   0.019  -0.002  -0.045   0.004  -0.048   0.002   0.017  -0.010   0.034  -0.004
 -0.008   0.072   0.013  -0.013  -0.008   0.019   0.262  -0.023  -0.003   0.005  -0.109   0.007  -0.001   0.051  -0.010  -0.000
 -0.002   0.011   0.074  -0.012   0.016  -0.002  -0.023   0.215   0.014  -0.020   0.028  -0.001  -0.012   0.009  -0.018   0.003
  0.036  -0.014  -0.012   0.092  -0.022  -0.045  -0.003   0.014   0.260   0.007   0.043  -0.004  -0.009   0.036   0.004   0.000
 -0.010  -0.007   0.017  -0.023   0.067   0.004   0.005  -0.020   0.007   0.258   0.046  -0.002  -0.038   0.002   0.049   0.007
  0.091   0.223  -0.053  -0.080  -0.096  -0.048  -0.109   0.028   0.043   0.046   0.952  -0.141   0.084   0.014   0.064  -0.013
 -0.031  -0.067   0.018   0.020   0.031   0.002   0.007  -0.001  -0.004  -0.002  -0.141   0.023  -0.014  -0.003  -0.010   0.003
  0.012   0.019  -0.003  -0.001  -0.003   0.017  -0.001  -0.012  -0.009  -0.038   0.084  -0.014   0.029  -0.008  -0.004  -0.003
  0.002   0.003  -0.006  -0.008  -0.009  -0.010   0.051   0.009   0.036   0.002   0.014  -0.003  -0.008   0.036   0.004   0.000
  0.002   0.003  -0.005  -0.003  -0.010   0.034  -0.010  -0.018   0.004   0.049   0.064  -0.010  -0.004   0.004   0.034  -0.000
 -0.019  -0.006   0.016   0.001   0.026  -0.004  -0.000   0.003   0.000   0.007  -0.013   0.003  -0.003   0.000  -0.000   0.001
  0.001  -0.028  -0.007  -0.018   0.001   0.001  -0.008  -0.001  -0.006  -0.000  -0.003   0.001   0.000  -0.003  -0.000   0.000
 -0.028   0.001   0.012  -0.005  -0.019  -0.006   0.001   0.003  -0.001  -0.007  -0.008   0.001  -0.000  -0.000  -0.003   0.000


------------------------ aborting loop because EDIFF is reached ----------------------------------------


    CHARGE:  cpu time   24.4351: real time   24.4347
    FORLOC:  cpu time    6.1976: real time    6.1975
    FORNL :  cpu time   65.1149: real time   65.1232
    STRESS:  cpu time  199.7681: real time  199.7657
    FORCOR:  cpu time   20.6012: real time   20.6010
    FORHAR:  cpu time    8.8805: real time    8.8805
    MIXING:  cpu time    3.9102: real time    3.9102
    OFIELD:  cpu time    0.0000: real time    0.0000

  FORCE on cell =-STRESS in cart. coord.  units (eV):
  Direction    XX          YY          ZZ          XY          YZ          ZX
  --------------------------------------------------------------------------------------
  Alpha Z    75.25432    75.25432    75.25432
  Ewald   44012.68622 44054.23557 50058.89568    -3.76596   317.50287   -47.32194
  Hartree 58940.33121 58975.65100 64583.19746    -3.08170   281.99130   -41.97222
  E(xc)   -2905.18591 -2905.09781 -2902.44984    -0.01246     0.38246    -0.05889
  Local  ************************************     6.71723  -594.90208    88.59977
  n-local  -881.25887  -881.63486  -895.01774     0.05397    -1.75812     0.26151
  augment  4104.82154  4104.72592  4101.81713     0.02520    -0.47400     0.07622
  Kinetic  7813.04726  7812.50106  7785.08128     0.10203    -3.49873     0.53207
  Fock        0.00000     0.00000     0.00000     0.00000     0.00000     0.00000
  -------------------------------------------------------------------------------------
  Total    -113.40753  -113.61819  -114.28271     0.03830    -0.75630     0.11652
  in kB      -6.72959    -6.74209    -6.78152     0.00227    -0.04488     0.00691
  external pressure =       -6.75 kB  Pullay stress =        0.00 kB


 VOLUME and BASIS-vectors are now :
 -----------------------------------------------------------------------------
  energy-cutoff  :      400.00
  volume of cell :    27000.00
      direct lattice vectors                 reciprocal lattice vectors
    30.000000000  0.000000000  0.000000000     0.033333333  0.000000000  0.000000000
     0.000000000 30.000000000  0.000000000     0.000000000  0.033333333  0.000000000
     0.000000000  0.000000000 30.000000000     0.000000000  0.000000000  0.033333333

  length of vectors
    30.000000000 30.000000000 30.000000000     0.033333333  0.033333333  0.033333333


 FORCES acting on ions
    electron-ion (+dipol)            ewald-force                    non-local-force                 convergence-correction
 -----------------------------------------------------------------------------------------------
   0.395E+03 0.974E+03 0.421E+03   -.392E+03 -.971E+03 -.421E+03   -.150E+01 -.183E+01 -.220E+00   0.309E-02 0.118E-02 0.103E-02
   -.974E+03 -.394E+03 0.422E+03   0.971E+03 0.392E+03 -.422E+03   0.183E+01 0.150E+01 -.212E+00   -.632E-03 0.511E-03 0.582E-03
   -.395E+03 0.974E+03 0.421E+03   0.393E+03 -.971E+03 -.421E+03   0.150E+01 -.183E+01 -.221E+00   0.449E-02 0.172E-02 0.318E-02
   0.974E+03 -.394E+03 0.422E+03   -.971E+03 0.392E+03 -.422E+03   -.182E+01 0.150E+01 -.210E+00   0.399E-02 0.854E-03 -.103E-02
   -.573E-01 0.588E+03 0.967E+03   0.552E-01 -.587E+03 -.963E+03   -.873E-05 -.302E+00 -.236E+01   0.208E-02 0.278E-02 0.132E-02
   -.914E+00 0.627E+03 -.933E+03   0.914E+00 -.626E+03 0.929E+03   -.641E-03 -.240E+00 0.238E+01   0.132E-02 0.241E-02 0.194E-02
   -.967E-01 0.114E+04 0.734E+01   0.941E-01 -.113E+04 -.734E+01   -.246E-03 -.311E+01 -.332E-02   0.275E-02 0.128E-02 -.157E-03
   0.114E+04 0.725E+00 0.849E+01   -.113E+04 -.727E+00 -.848E+01   -.310E+01 0.121E-02 -.104E-01   0.139E-02 0.187E-02 0.353E-03
   -.114E+04 0.701E+00 0.817E+01   0.113E+04 -.702E+00 -.816E+01   0.310E+01 0.129E-02 -.875E-02   -.215E-02 0.327E-03 0.443E-02
   -.120E+00 -.114E+04 0.954E+01   0.120E+00 0.113E+04 -.952E+01   -.880E-04 0.310E+01 -.157E-01   -.259E-03 -.166E-02 -.410E-03
   -.579E+03 0.580E+03 0.815E+03   0.577E+03 -.577E+03 -.811E+03   0.156E+01 -.156E+01 -.220E+01   0.129E-02 0.277E-03 0.199E-02
   -.598E+03 0.601E+03 -.793E+03   0.596E+03 -.599E+03 0.790E+03   0.155E+01 -.155E+01 0.221E+01   0.228E-02 0.277E-02 0.349E-03
   0.579E+03 -.579E+03 0.815E+03   -.577E+03 0.577E+03 -.812E+03   -.156E+01 0.155E+01 -.220E+01   0.884E-03 -.267E-02 0.134E-02
   0.608E+03 -.603E+03 -.782E+03   -.605E+03 0.600E+03 0.779E+03   -.154E+01 0.154E+01 0.220E+01   0.827E-03 -.166E-02 0.214E-03
   0.579E+03 0.580E+03 0.815E+03   -.577E+03 -.577E+03 -.811E+03   -.155E+01 -.156E+01 -.220E+01   -.168E-02 0.388E-02 -.284E-02
   0.598E+03 0.602E+03 -.792E+03   -.595E+03 -.600E+03 0.789E+03   -.155E+01 -.155E+01 0.221E+01   0.145E-02 0.286E-02 0.110E-02
   -.579E+03 -.579E+03 0.815E+03   0.577E+03 0.577E+03 -.812E+03   0.156E+01 0.155E+01 -.220E+01   -.593E-03 -.514E-03 0.728E-03
   -.607E+03 -.601E+03 -.784E+03   0.605E+03 0.599E+03 0.781E+03   0.154E+01 0.154E+01 0.220E+01   0.185E-02 -.319E-02 -.192E-02
   0.397E+03 0.985E+03 -.402E+03   -.395E+03 -.982E+03 0.402E+03   -.151E+01 -.183E+01 0.208E+00   0.107E-02 0.247E-02 0.267E-02
   -.986E+03 -.397E+03 -.399E+03   0.983E+03 0.394E+03 0.399E+03   0.183E+01 0.151E+01 0.214E+00   0.182E-03 -.254E-02 0.145E-02
   -.322E+03 0.323E+03 0.461E+03   0.323E+03 -.323E+03 -.462E+03   -.365E+00 0.365E+00 0.517E+00   0.159E-03 0.904E-03 0.338E-02
   0.974E+03 0.395E+03 0.422E+03   -.971E+03 -.393E+03 -.421E+03   -.183E+01 -.150E+01 -.218E+00   0.199E-02 0.553E-02 -.137E-02
   -.395E+03 -.974E+03 0.423E+03   0.393E+03 0.971E+03 -.422E+03   0.150E+01 0.183E+01 -.209E+00   -.689E-03 -.222E-02 -.422E-03
   -.398E+03 0.984E+03 -.402E+03   0.396E+03 -.981E+03 0.402E+03   0.151E+01 -.183E+01 0.207E+00   0.224E-02 0.444E-02 0.751E-03
   0.986E+03 -.397E+03 -.398E+03   -.983E+03 0.395E+03 0.398E+03   -.183E+01 0.152E+01 0.214E+00   0.384E-02 -.991E-03 0.925E-03
   -.974E+03 0.395E+03 0.422E+03   0.971E+03 -.393E+03 -.421E+03   0.183E+01 -.150E+01 -.220E+00   -.120E-02 0.140E-03 0.240E-02
   0.395E+03 -.974E+03 0.423E+03   -.393E+03 0.971E+03 -.422E+03   -.150E+01 0.183E+01 -.208E+00   0.103E-04 -.319E-02 -.382E-03
   0.322E+03 0.323E+03 0.461E+03   -.323E+03 -.323E+03 -.462E+03   0.365E+00 0.365E+00 0.518E+00   0.207E-02 0.765E-02 0.118E-02
   -.177E+00 0.645E+03 0.140E+02   0.173E+00 -.646E+03 -.140E+02   0.620E-04 0.734E+00 -.615E-02   0.430E-02 0.409E-02 0.275E-04
   -.588E+03 0.385E+00 0.967E+03   0.587E+03 -.386E+00 -.963E+03   0.303E+00 -.509E-03 -.236E+01   -.795E-03 0.177E-02 0.110E-02
   -.631E+03 0.774E+01 -.925E+03   0.630E+03 -.775E+01 0.921E+03   0.198E+00 0.772E-02 0.237E+01   0.265E-02 -.924E-03 -.301E-02
   0.588E+03 0.388E+00 0.967E+03   -.587E+03 -.390E+00 -.963E+03   -.304E+00 -.588E-03 -.236E+01   0.175E-02 0.387E-02 0.344E-03
   0.632E+03 0.844E+01 -.921E+03   -.632E+03 -.845E+01 0.918E+03   -.180E+00 0.942E-02 0.236E+01   0.175E-02 0.945E-03 -.954E-04
   0.764E+03 0.765E+03 0.110E+02   -.763E+03 -.764E+03 -.111E+02   -.113E+01 -.113E+01 0.197E-01   0.214E-02 0.407E-02 0.264E-02
   -.766E+03 -.764E+03 0.127E+02   0.764E+03 0.762E+03 -.127E+02   0.114E+01 0.114E+01 0.238E-02   0.344E-03 -.244E-02 0.162E-02
   -.765E+03 0.765E+03 0.108E+02   0.763E+03 -.763E+03 -.108E+02   0.113E+01 -.113E+01 0.223E-01   0.904E-03 0.142E-02 0.717E-03
   0.765E+03 -.764E+03 0.131E+02   -.763E+03 0.762E+03 -.131E+02   -.114E+01 0.114E+01 -.102E-02   0.239E-02 -.255E-02 -.116E-02
   -.624E-01 0.430E+00 0.107E+04   0.630E-01 -.425E+00 -.107E+04   0.742E-03 -.522E-02 -.162E+01   -.180E-02 0.365E-02 0.246E-02
   -.536E+01 0.362E+02 -.903E+03   0.528E+01 -.357E+02 0.903E+03   0.249E-01 -.167E+00 -.113E+00   -.351E-03 -.116E-03 -.741E-03
   0.985E+03 0.400E+03 -.400E+03   -.982E+03 -.398E+03 0.400E+03   -.183E+01 -.151E+01 0.204E+00   0.196E-02 0.286E-02 0.229E-02
   -.400E+03 -.986E+03 -.397E+03   0.397E+03 0.983E+03 0.396E+03   0.152E+01 0.183E+01 0.209E+00   0.197E-03 -.240E-02 0.665E-04
   -.331E+03 0.334E+03 -.421E+03   0.331E+03 -.335E+03 0.422E+03   -.272E+00 0.281E+00 -.581E+00   0.300E-02 0.966E-03 0.851E-03
   0.322E+03 -.322E+03 0.462E+03   -.323E+03 0.322E+03 -.462E+03   0.361E+00 -.361E+00 0.526E+00   -.343E-03 -.727E-03 -.160E-03
   0.330E+03 0.335E+03 -.420E+03   -.331E+03 -.335E+03 0.421E+03   0.280E+00 0.291E+00 -.564E+00   0.101E-02 0.371E-02 0.127E-02
   -.984E+03 0.400E+03 -.401E+03   0.981E+03 -.398E+03 0.400E+03   0.183E+01 -.151E+01 0.204E+00   -.432E-03 0.163E-02 0.144E-02
   0.399E+03 -.986E+03 -.396E+03   -.397E+03 0.983E+03 0.396E+03   -.152E+01 0.183E+01 0.211E+00   -.292E-03 -.275E-02 0.342E-03
   -.322E+03 -.322E+03 0.462E+03   0.323E+03 0.322E+03 -.462E+03   -.362E+00 -.362E+00 0.525E+00   -.217E-02 -.781E-04 0.131E-04
   0.645E+03 0.129E+01 0.156E+02   -.646E+03 -.129E+01 -.155E+02   0.731E+00 -.763E-03 -.223E-01   0.340E-02 0.384E-02 0.104E-03
   -.645E+03 0.126E+01 0.151E+02   0.646E+03 -.126E+01 -.151E+02   -.732E+00 -.658E-03 -.182E-01   0.133E-02 -.521E-03 0.340E-02
   -.589E-01 -.587E+03 0.967E+03   0.598E-01 0.587E+03 -.964E+03   0.666E-04 0.305E+00 -.236E+01   -.103E-02 -.179E-02 0.183E-02
   -.166E+01 -.638E+03 -.908E+03   0.166E+01 0.638E+03 0.904E+03   -.249E-02 0.113E+00 0.235E+01   -.859E-03 -.199E-02 -.108E-02
   -.247E+00 0.168E+01 0.205E+02   0.249E+00 -.168E+01 -.205E+02   -.251E-03 0.204E-02 -.143E-01   -.147E-02 0.139E-02 -.389E-03
   0.332E+03 -.329E+03 -.414E+03   -.333E+03 0.329E+03 0.414E+03   0.337E+00 -.330E+00 -.462E+00   0.258E-03 -.114E-02 -.519E-04
   -.333E+03 -.328E+03 -.415E+03   0.334E+03 0.329E+03 0.416E+03   -.333E+00 -.323E+00 -.476E+00   0.157E-02 -.917E-03 0.346E-03
   -.206E+00 -.644E+03 0.169E+02   0.207E+00 0.645E+03 -.169E+02   0.165E-03 -.729E+00 -.348E-01   -.109E-02 -.304E-02 -.585E-03
   0.237E+01 -.154E+02 -.216E+03   -.203E+01 0.132E+02 0.189E+03   -.235E+00 0.161E+01 0.225E+02   0.482E-05 -.155E-03 -.219E-04
   0.767E+01 -.516E+02 -.721E+03   -.840E+01 0.566E+02 0.785E+03   0.697E+00 -.471E+01 -.610E+02   0.976E-04 -.203E-03 -.812E-03
 -----------------------------------------------------------------------------------------------
   -.561E+00 0.343E+01 0.402E+02   0.323E-12 0.618E-12 -.455E-12   0.516E+00 -.348E+01 -.402E+02   0.505E-01 0.377E-01 0.356E-01
 
 
 POSITION                                       TOTAL-FORCE (eV/Angst)
 -----------------------------------------------------------------------------------
     13.37281      9.84801     12.50759         0.701183      1.107315      0.292265
     20.15199     16.62719     12.50759        -1.107546     -0.701019      0.290800
     16.62719      9.84801     12.50759        -0.701486      1.107686      0.292643
      9.84801     16.62719     12.50759         1.107612     -0.701030      0.290571
     15.00000     11.47521     10.20639        -0.000178      0.406608      1.281399
     15.00000     11.47521     19.79360         0.000132      0.389640     -1.317097
     15.00000      8.28283     15.00000        -0.000153      1.513832      0.001681
      8.28283     15.00000     15.00000         1.512267      0.000761      0.003503
     21.71717     15.00000     15.00000        -1.512795      0.000738      0.003071
     15.00000     21.71717     15.00000        -0.000233     -1.511304      0.005081
     18.35858     11.64142     10.25025        -0.753977      0.754916      1.073762
     18.35858     11.64142     19.74975        -0.754818      0.754333     -1.072629
     11.64142     18.35858     10.25025         0.754930     -0.753799      1.073433
     11.64142     18.35858     19.74975         0.749234     -0.751461     -1.075604
     11.64142     11.64142     10.25025         0.753629      0.755150      1.073750
     11.64142     11.64142     19.74975         0.754513      0.753774     -1.072962
     18.35858     18.35858     10.25025        -0.755232     -0.753560      1.073511
     18.35858     18.35858     19.74975        -0.749983     -0.752396     -1.075093
     13.37281      9.84801     17.49241         0.700176      1.106641     -0.290083
     20.15199     16.62719     17.49241        -1.105324     -0.700091     -0.292618
     16.73751     13.26249     12.54279         0.112983     -0.112862     -0.154459
      9.84801     13.37281     12.50759         1.108373      0.700779      0.291842
     16.62719     20.15199     12.50759        -0.700895     -1.108671      0.290060
     16.62719      9.84801     17.49241        -0.700672      1.106704     -0.289653
      9.84801     16.62719     17.49241         1.104537     -0.700225     -0.292943
     20.15199     13.37281     12.50759        -1.108421      0.700933      0.292324
     13.37281     20.15199     12.50759         0.700859     -1.108577      0.289961
     13.26249     13.26249     12.54279        -0.113202     -0.112874     -0.154548
     15.00000     11.52498     15.00000         0.000073     -0.218770      0.000576
     18.52479     15.00000     10.20639        -0.407550      0.000794      1.281433
     18.52479     15.00000     19.79360        -0.380046     -0.002935     -1.321634
     11.47521     15.00000     10.20640         0.407615      0.000805      1.281566
     11.47521     15.00000     19.79360         0.376271     -0.003322     -1.322978
     11.49535     11.49535     15.00000         0.819555      0.818085     -0.015799
     18.50465     18.50465     15.00000        -0.821431     -0.822577     -0.009900
     18.50465     11.49535     15.00000        -0.819440      0.818128     -0.016264
     11.49535     18.50465     15.00000         0.822174     -0.823107     -0.008479
     15.00000     15.00000     10.04368        -0.000579      0.003288      1.184087
     15.00000     15.00000     19.95633        -0.050306      0.336918      0.609980
      9.84801     13.37281     17.49241         1.107847      0.703225     -0.288883
     16.62719     20.15199     17.49241        -0.703261     -1.105598     -0.291007
     16.73751     13.26249     17.45721         0.087721     -0.096963      0.167245
     13.26249     16.73751     12.54279        -0.113525      0.113181     -0.154952
     13.26249     13.26249     17.45721        -0.093670     -0.105485      0.161204
     20.15199     13.37281     17.49241        -1.107946      0.702922     -0.288827
     13.37281     20.15199     17.49241         0.702599     -1.104871     -0.291800
     16.73751     16.73751     12.54279         0.113323      0.113159     -0.154906
     11.52498     15.00000     15.00000        -0.219090     -0.000876     -0.001307
     18.47502     15.00000     15.00000         0.218924     -0.000954     -0.000924
     15.00000     18.52480     10.20639        -0.000216     -0.407804      1.281412
     15.00000     18.52480     19.79360         0.000221     -0.372566     -1.317069
     15.00000     15.00000     15.00000        -0.000119     -0.000076      0.009470
     13.26249     16.73751     17.45721        -0.134901      0.127314      0.138519
     16.73751     16.73751     17.45721         0.133140      0.122965      0.140568
     15.00000     18.47502     15.00000        -0.000027      0.218969     -0.002427
     14.91527     15.57253     22.31506         0.102580     -0.658283     -4.591709
     14.90224     15.66054     23.43955        -0.035448      0.252497      2.990836
 -----------------------------------------------------------------------------------
    total drift:                                0.005709     -0.008990     -0.002150


--------------------------------------------------------------------------------------------------------



  FREE ENERGIE OF THE ION-ELECTRON SYSTEM (eV)
  ---------------------------------------------------
  free  energy   TOTEN  =      -174.20949845 eV

  energy  without entropy=     -174.13780142  energy(sigma->0) =     -174.19157419
 


--------------------------------------------------------------------------------------------------------


    POTLOK:  cpu time   13.4807: real time   13.4806


--------------------------------------------------------------------------------------------------------


     LOOP+:  cpu time18053.9989: real time18054.5037
    4ORBIT:  cpu time    0.0000: real time    0.0000

 total amount of memory used by VASP MPI-rank0  5486941. kBytes
=======================================================================

   base      :      30000. kBytes
   nonlr-proj:      17126. kBytes
   fftplans  :     924480. kBytes
   grid      :    1872000. kBytes
   one-center:        886. kBytes
   wavefun   :    2642449. kBytes
 
  
  
 General timing and accounting informations for this job:
 ========================================================
  
                  Total CPU time used (sec):    18125.312
                            User time (sec):    17159.570
                          System time (sec):      965.742
                         Elapsed time (sec):    18125.855
  
                   Maximum memory used (kb):     7179032.
                   Average memory used (kb):           0.
  
                          Minor page faults:    813635093
                          Major page faults:            0
                 Voluntary context switches:          450
