   57   57    1    1
  0.4736842E+03  0.3000000E-08  0.3000000E-08  0.3000000E-08  0.5000000E-15
  1.000000000000000E-004
  CAR 
 6_Pd100_top_free_z(O)                   
    560      1    336
 
  0.0000000E+00  0.0000000E+00  0.0000000E+00  0.1000000E+01
    1      -29.051541   1.000000
    2      -13.616987   1.000000
    3      -11.364113   1.000000
    4      -11.364079   1.000000
    5       -9.872713   1.000000
    6       -6.628744   1.000000
    7       -6.111612   1.000000
    8       -6.111608   1.000000
    9       -6.106603   1.000000
   10       -5.799782   1.000000
   11       -5.799775   1.000000
   12       -5.794153   1.000000
   13       -5.727800   1.000000
   14       -5.675739   1.000000
   15       -5.667078   1.000000
   16       -5.667075   1.000000
   17       -5.666737   1.000000
   18       -5.606196   1.000000
   19       -5.603628   1.000000
   20       -5.588933   1.000000
   21       -5.585357   1.000000
   22       -5.585348   1.000000
   23       -5.578729   1.000000
   24       -5.561330   1.000000
   25       -5.561316   1.000000
   26       -5.539417   1.000000
   27       -5.534774   1.000000
   28       -5.508394   1.000000
   29       -5.506548   1.000000
   30       -5.506541   1.000000
   31       -5.499916   1.000000
   32       -5.498557   1.000000
   33       -5.498551   1.000000
   34       -5.497317   1.000000
   35       -5.493719   1.000000
   36       -5.463151   1.000000
   37       -5.463145   1.000000
   38       -5.461738   1.000000
   39       -5.459912   1.000000
   40       -5.450495   1.000000
   41       -5.449249   1.000000
   42       -5.449081   1.000000
   43       -5.449079   1.000000
   44       -5.428615   1.000000
   45       -5.424323   1.000000
   46       -5.422498   1.000000
   47       -5.422470   1.000000
   48       -5.410608   1.000000
   49       -5.410602   1.000000
   50       -5.408906   1.000000
   51       -5.408865   1.000000
   52       -5.391698   1.000000
   53       -5.389468   1.000000
   54       -5.389433   1.000000
   55       -5.374287   1.000000
   56       -5.328517   1.000000
   57       -5.328508   1.000000
   58       -5.315237   1.000000
   59       -5.313207   1.000000
   60       -5.298236   1.000000
   61       -5.297734   1.000000
   62       -5.297724   1.000000
   63       -5.289622   1.000000
   64       -5.289597   1.000000
   65       -5.287221   1.000000
   66       -5.278781   1.000000
   67       -5.272892   1.000000
   68       -5.221521   1.000000
   69       -5.221504   1.000000
   70       -5.203779   1.000000
   71       -5.203016   1.000000
   72       -5.162790   1.000000
   73       -5.161945   1.000000
   74       -5.161934   1.000000
   75       -5.158040   1.000000
   76       -5.155410   1.000000
   77       -5.152993   1.000000
   78       -5.152964   1.000000
   79       -5.148983   1.000000
   80       -5.128883   1.000000
   81       -5.108566   1.000000
   82       -5.108544   1.000000
   83       -5.106696   1.000000
   84       -5.101215   1.000000
   85       -5.098280   1.000000
   86       -5.098261   1.000000
   87       -5.084100   1.000000
   88       -5.071301   1.000000
   89       -5.071285   1.000000
   90       -5.046273   1.000000
   91       -5.044087   1.000000
   92       -5.039880   1.000000
   93       -5.037681   1.000000
   94       -5.033327   1.000000
   95       -5.033302   1.000000
   96       -5.029298   1.000000
   97       -5.029294   1.000000
   98       -5.008109   1.000000
   99       -5.000236   1.000000
  100       -4.999553   1.000000
  101       -4.987732   1.000000
  102       -4.987215   1.000000
  103       -4.987205   1.000000
  104       -4.983089   1.000000
  105       -4.983064   1.000000
  106       -4.972064   1.000000
  107       -4.964502   1.000000
  108       -4.961039   1.000000
  109       -4.961038   1.000000
  110       -4.958650   1.000000
  111       -4.952611   1.000000
  112       -4.951842   1.000000
  113       -4.949771   1.000000
  114       -4.939780   0.999999
  115       -4.939045   0.999999
  116       -4.939028   0.999999
  117       -4.920060   0.999999
  118       -4.919679   0.999999
  119       -4.919538   0.999999
  120       -4.898724   0.999998
  121       -4.898691   0.999998
  122       -4.898271   0.999998
  123       -4.891513   0.999997
  124       -4.891085   0.999997
  125       -4.883204   0.999996
  126       -4.883195   0.999996
  127       -4.851633   0.999989
  128       -4.851626   0.999989
  129       -4.839715   0.999985
  130       -4.835815   0.999983
  131       -4.824035   0.999976
  132       -4.821829   0.999974
  133       -4.813176   0.999967
  134       -4.813169   0.999967
  135       -4.811619   0.999965
  136       -4.793944   0.999943
  137       -4.793939   0.999943
  138       -4.777083   0.999910
  139       -4.773776   0.999902
  140       -4.770286   0.999892
  141       -4.770267   0.999892
  142       -4.740689   0.999774
  143       -4.718984   0.999626
  144       -4.718972   0.999626
  145       -4.717441   0.999613
  146       -4.717280   0.999611
  147       -4.713359   0.999576
  148       -4.704402   0.999485
  149       -4.704399   0.999485
  150       -4.688718   0.999285
  151       -4.677833   0.999113
  152       -4.666704   0.998904
  153       -4.663580   0.998840
  154       -4.657517   0.998706
  155       -4.657508   0.998706
  156       -4.655155   0.998651
  157       -4.653534   0.998612
  158       -4.653514   0.998611
  159       -4.642025   0.998314
  160       -4.637508   0.998186
  161       -4.637505   0.998185
  162       -4.634306   0.998091
  163       -4.632006   0.998022
  164       -4.631387   0.998003
  165       -4.626297   0.997842
  166       -4.626290   0.997842
  167       -4.624859   0.997796
  168       -4.622104   0.997705
  169       -4.610703   0.997311
  170       -4.609176   0.997256
  171       -4.605513   0.997122
  172       -4.605499   0.997122
  173       -4.594287   0.996704
  174       -4.578085   0.996101
  175       -4.578058   0.996100
  176       -4.575162   0.995997
  177       -4.574209   0.995963
  178       -4.566985   0.995719
  179       -4.566975   0.995718
  180       -4.566950   0.995717
  181       -4.553813   0.995342
  182       -4.540717   0.995108
  183       -4.534507   0.995067
  184       -4.534471   0.995067
  185       -4.532889   0.995065
  186       -4.531790   0.995066
  187       -4.531766   0.995066
  188       -4.531616   0.995066
  189       -4.529068   0.995077
  190       -4.529051   0.995077
  191       -4.492808   0.996733
  192       -4.489085   0.997109
  193       -4.489071   0.997110
  194       -4.484519   0.997634
  195       -4.484237   0.997669
  196       -4.471610   0.999537
  197       -4.461954   1.001401
  198       -4.461923   1.001407
  199       -4.457567   1.002380
  200       -4.449418   1.004428
  201       -4.448680   1.004628
  202       -4.443085   1.006228
  203       -4.438022   1.007799
  204       -4.438012   1.007802
  205       -4.430986   1.010174
  206       -4.429836   1.010583
  207       -4.429822   1.010588
  208       -4.427001   1.011616
  209       -4.426955   1.011633
  210       -4.419790   1.014395
  211       -4.405967   1.020269
  212       -4.394615   1.025509
  213       -4.389055   1.028160
  214       -4.389019   1.028177
  215       -4.388297   1.028524
  216       -4.382732   1.031203
  217       -4.381617   1.031739
  218       -4.381593   1.031751
  219       -4.378957   1.033017
  220       -4.363313   1.040275
  221       -4.363304   1.040279
  222       -4.339352   1.048994
  223       -4.330703   1.050812
  224       -4.330694   1.050813
  225       -4.325769   1.051404
  226       -4.319520   1.051615
  227       -4.318056   1.051569
  228       -4.317052   1.051515
  229       -4.317040   1.051514
  230       -4.312920   1.051096
  231       -4.309659   1.050530
  232       -4.309651   1.050528
  233       -4.304007   1.049016
  234       -4.303282   1.048770
  235       -4.302316   1.048424
  236       -4.301410   1.048080
  237       -4.301232   1.048010
  238       -4.301219   1.048005
  239       -4.297199   1.046220
  240       -4.297161   1.046202
  241       -4.285440   1.038593
  242       -4.280466   1.034193
  243       -4.274912   1.028388
  244       -4.274892   1.028366
  245       -4.267456   1.019034
  246       -4.263967   1.014014
  247       -4.263941   1.013975
  248       -4.263422   1.013192
  249       -4.258808   1.005812
  250       -4.253792   0.996923
  251       -4.243872   0.976598
  252       -4.237522   0.961625
  253       -4.237514   0.961605
  254       -4.236408   0.958840
  255       -4.229986   0.941838
  256       -4.229829   0.941401
  257       -4.229816   0.941366
  258       -4.227344   0.934378
  259       -4.223535   0.923149
  260       -4.223519   0.923099
  261       -4.217763   0.905067
  262       -4.216347   0.900435
  263       -4.216332   0.900387
  264       -4.216190   0.899919
  265       -4.213339   0.890345
  266       -4.201480   0.847307
  267       -4.198307   0.834935
  268       -4.198297   0.834897
  269       -4.198274   0.834805
  270       -4.195181   0.822411
  271       -4.194003   0.817606
  272       -4.186684   0.786738
  273       -4.174095   0.729896
  274       -4.174087   0.729861
  275       -4.172301   0.721449
  276       -4.162814   0.675519
  277       -4.162803   0.675469
  278       -4.156485   0.643859
  279       -4.148771   0.604395
  280       -4.148764   0.604358
  281       -4.148365   0.602294
  282       -4.134538   0.529898
  283       -4.113091   0.416880
  284       -4.110156   0.401627
  285       -4.110148   0.401583
  286       -4.105119   0.375682
  287       -4.096176   0.330558
  288       -4.090417   0.302285
  289       -4.060382   0.168736
  290       -3.944205  -0.051182
  291       -3.880158  -0.033664
  292       -3.800592  -0.002473
  293       -3.799836  -0.002297
  294       -3.799823  -0.002294
  295       -3.473092   0.000074
  296       -3.473088   0.000074
  297       -3.404986   0.000010
  298       -3.039655   0.000000
  299       -3.039652   0.000000
  300       -2.999027   0.000000
  301       -2.995121   0.000000
  302       -2.993942   0.000000
  303       -2.993938   0.000000
  304       -2.910485   0.000000
  305       -2.834858   0.000000
  306       -2.540720   0.000000
  307       -2.540715   0.000000
  308       -2.499876   0.000000
  309       -2.238355   0.000000
  310       -2.112210   0.000000
  311       -2.112199   0.000000
  312       -2.098289   0.000000
  313       -1.933988   0.000000
  314       -1.933985   0.000000
  315       -1.855350   0.000000
  316       -1.835226   0.000000
  317       -1.830192   0.000000
  318       -1.747514   0.000000
  319       -1.747512   0.000000
  320       -1.703369   0.000000
  321       -1.623517   0.000000
  322       -1.532598   0.000000
  323       -1.491810   0.000000
  324       -1.428712   0.000000
  325       -1.428704   0.000000
  326       -1.115246   0.000000
  327       -1.115188   0.000000
  328       -1.037096   0.000000
  329       -0.964606   0.000000
  330       -0.959089   0.000000
  331       -0.950333   0.000000
  332       -0.924721   0.000000
  333       -0.913093   0.000000
  334       -0.892420   0.000000
  335       -0.786970   0.000000
  336       -0.777221   0.000000
