       N       E                     dE             d eps       ncg     rms          rms(c)
DAV:   1     0.439327787573E+04    0.43933E+04   -0.10054E+05   688   0.815E+02
DAV:   2     0.202614725076E+04   -0.23671E+04   -0.21288E+04  1208   0.105E+02
DAV:   3     0.233870905513E+03   -0.17923E+04   -0.16838E+04  1024   0.919E+01
DAV:   4    -0.133967145454E+03   -0.36784E+03   -0.31120E+03   824   0.436E+01
DAV:   5    -0.180347005887E+03   -0.46380E+02   -0.37899E+02  1048   0.147E+01    0.164E+01
RMM:   6    -0.180377184158E+03   -0.30178E-01   -0.62460E+01   730   0.926E+00    0.238E+01
RMM:   7    -0.183759164717E+03   -0.33820E+01   -0.21137E+01   856   0.473E+00    0.261E+01
RMM:   8    -0.184893429941E+03   -0.11343E+01   -0.79482E+00   801   0.349E+00    0.251E+01
RMM:   9    -0.183774719929E+03    0.11187E+01   -0.66413E+00   733   0.358E+00    0.300E+01
RMM:  10    -0.181925315702E+03    0.18494E+01   -0.32812E+00   747   0.248E+00    0.223E+01
RMM:  11    -0.179683808259E+03    0.22415E+01   -0.29624E+00   729   0.252E+00    0.179E+01
RMM:  12    -0.178023532224E+03    0.16603E+01   -0.21144E+00   720   0.218E+00    0.174E+01
RMM:  13    -0.177136325170E+03    0.88721E+00   -0.16828E+00   715   0.191E+00    0.143E+01
RMM:  14    -0.177323985876E+03   -0.18766E+00   -0.15912E+00   708   0.187E+00    0.206E+01
RMM:  15    -0.176900692607E+03    0.42329E+00   -0.12866E+00   704   0.167E+00    0.161E+01
RMM:  16    -0.176407949283E+03    0.49274E+00   -0.94803E-01   714   0.145E+00    0.135E+01
RMM:  17    -0.176176266770E+03    0.23168E+00   -0.42722E-01   720   0.981E-01    0.114E+01
RMM:  18    -0.176041565919E+03    0.13470E+00   -0.44147E-01   706   0.998E-01    0.122E+01
RMM:  19    -0.175800792955E+03    0.24077E+00   -0.40421E-01   695   0.980E-01    0.892E+00
RMM:  20    -0.175763200891E+03    0.37592E-01   -0.34277E-01   699   0.901E-01    0.106E+01
RMM:  21    -0.175605470732E+03    0.15773E+00   -0.18315E-01   703   0.669E-01    0.824E+00
RMM:  22    -0.175447293801E+03    0.15818E+00   -0.21231E-01   697   0.699E-01    0.545E+00
RMM:  23    -0.175464595571E+03   -0.17302E-01   -0.20598E-01   699   0.693E-01    0.700E+00
RMM:  24    -0.175368128750E+03    0.96467E-01   -0.15010E-01   698   0.599E-01    0.594E+00
RMM:  25    -0.175303717168E+03    0.64412E-01   -0.10371E-01   696   0.504E-01    0.471E+00
RMM:  26    -0.175221245276E+03    0.82472E-01   -0.59877E-02   694   0.381E-01    0.294E+00
RMM:  27    -0.175207007679E+03    0.14238E-01   -0.42723E-02   693   0.330E-01    0.247E+00
RMM:  28    -0.175191894319E+03    0.15113E-01   -0.34048E-02   692   0.295E-01    0.208E+00
RMM:  29    -0.175172945656E+03    0.18949E-01   -0.21269E-02   693   0.239E-01    0.161E+00
RMM:  30    -0.175168295564E+03    0.46501E-02   -0.14005E-02   699   0.195E-01    0.149E+00
RMM:  31    -0.175161047988E+03    0.72476E-02   -0.96185E-03   691   0.161E-01    0.120E+00
RMM:  32    -0.175156605640E+03    0.44423E-02   -0.59293E-03   690   0.131E-01    0.998E-01
RMM:  33    -0.175154478229E+03    0.21274E-02   -0.37087E-03   689   0.102E-01    0.800E-01
RMM:  34    -0.175154053672E+03    0.42456E-03   -0.27801E-03   690   0.861E-02    0.729E-01
RMM:  35    -0.175152675405E+03    0.13783E-02   -0.21143E-03   689   0.748E-02    0.500E-01
RMM:  36    -0.175153834305E+03   -0.11589E-02   -0.20656E-03   688   0.702E-02    0.545E-01
RMM:  37    -0.175155401160E+03   -0.15669E-02   -0.15895E-03   685   0.611E-02    0.526E-01
RMM:  38    -0.175156311086E+03   -0.90993E-03   -0.97383E-04   685   0.527E-02    0.385E-01
RMM:  39    -0.175157413184E+03   -0.11021E-02   -0.58061E-04   624   0.394E-02    0.323E-01
RMM:  40    -0.175161048091E+03   -0.36349E-02   -0.94629E-04   683   0.460E-02    0.280E-01
RMM:  41    -0.175162686082E+03   -0.16380E-02   -0.47907E-04   550   0.334E-02    0.195E-01
RMM:  42    -0.175165891870E+03   -0.32058E-02   -0.53483E-04   566   0.325E-02    0.238E-01
RMM:  43    -0.175168747257E+03   -0.28554E-02   -0.52776E-04   545   0.307E-02    0.159E-01
RMM:  44    -0.175170085525E+03   -0.13383E-02   -0.23955E-04   429   0.216E-02    0.114E-01
RMM:  45    -0.175172551154E+03   -0.24656E-02   -0.31518E-04   450   0.224E-02    0.123E-01
RMM:  46    -0.175174228371E+03   -0.16772E-02   -0.25423E-04   426   0.204E-02    0.947E-02
RMM:  47    -0.175175352678E+03   -0.11243E-02   -0.16208E-04   419   0.155E-02    0.738E-02
RMM:  48    -0.175176196035E+03   -0.84336E-03   -0.10336E-04   409   0.123E-02    0.520E-02
RMM:  49    -0.175176908828E+03   -0.71279E-03   -0.64762E-05   412   0.948E-03    0.481E-02
RMM:  50    -0.175177828478E+03   -0.91965E-03   -0.54812E-05   402   0.863E-03    0.330E-02
RMM:  51    -0.175178389497E+03   -0.56102E-03   -0.33921E-05   395   0.683E-03    0.319E-02
RMM:  52    -0.175178952290E+03   -0.56279E-03   -0.24123E-05   383   0.584E-03    0.252E-02
RMM:  53    -0.175179338887E+03   -0.38660E-03   -0.11134E-05   247   0.460E-03    0.221E-02
RMM:  54    -0.175179880770E+03   -0.54188E-03   -0.15928E-05   310   0.495E-03    0.195E-02
RMM:  55    -0.175180190943E+03   -0.31017E-03   -0.72059E-06   194   0.418E-03    0.109E-02
RMM:  56    -0.175180437810E+03   -0.24687E-03   -0.10500E-05   220   0.429E-03    0.168E-02
RMM:  57    -0.175180670094E+03   -0.23228E-03   -0.53376E-06   159   0.396E-03    0.107E-02
RMM:  58    -0.175180842440E+03   -0.17235E-03   -0.12677E-05   231   0.422E-03    0.895E-03
RMM:  59    -0.175181033326E+03   -0.19089E-03   -0.98072E-06   179   0.393E-03    0.642E-03
RMM:  60    -0.175181106015E+03   -0.72689E-04   -0.32722E-06   125   0.357E-03
   1 F= -.17518111E+03 E0= -.17516665E+03  d E =-.578251E-01
