       N       E                     dE             d eps       ncg     rms          rms(c)
DAV:   1     0.438974697795E+04    0.43897E+04   -0.10047E+05   688   0.815E+02
DAV:   2     0.202724309009E+04   -0.23625E+04   -0.21208E+04  1208   0.105E+02
DAV:   3     0.240375563654E+03   -0.17869E+04   -0.16759E+04  1008   0.921E+01
DAV:   4    -0.132559994324E+03   -0.37294E+03   -0.31795E+03   832   0.438E+01
DAV:   5    -0.179282858213E+03   -0.46723E+02   -0.38480E+02  1056   0.146E+01    0.144E+01
RMM:   6    -0.179838670816E+03   -0.55581E+00   -0.56930E+01   726   0.899E+00    0.236E+01
RMM:   7    -0.180328335806E+03   -0.48966E+00   -0.19409E+01   848   0.462E+00    0.175E+01
RMM:   8    -0.183453012548E+03   -0.31247E+01   -0.64817E+00   758   0.347E+00    0.282E+01
RMM:   9    -0.181420497175E+03    0.20325E+01   -0.36340E+00   760   0.267E+00    0.248E+01
RMM:  10    -0.178829306491E+03    0.25912E+01   -0.29300E+00   728   0.250E+00    0.195E+01
RMM:  11    -0.177521388333E+03    0.13079E+01   -0.17826E+00   727   0.195E+00    0.150E+01
RMM:  12    -0.176621957495E+03    0.89943E+00   -0.16963E+00   716   0.194E+00    0.129E+01
RMM:  13    -0.176573245974E+03    0.48712E-01   -0.13219E+00   718   0.171E+00    0.223E+01
RMM:  14    -0.175998001335E+03    0.57524E+00   -0.10433E+00   723   0.142E+00    0.138E+01
RMM:  15    -0.176072581218E+03   -0.74580E-01   -0.78993E-01   724   0.128E+00    0.131E+01
RMM:  16    -0.176086057856E+03   -0.13477E-01   -0.58397E-01   718   0.114E+00    0.134E+01
RMM:  17    -0.175925265450E+03    0.16079E+00   -0.48144E-01   720   0.106E+00    0.123E+01
RMM:  18    -0.175577763791E+03    0.34750E+00   -0.32112E-01   709   0.883E-01    0.120E+01
RMM:  19    -0.175626796910E+03   -0.49033E-01   -0.21089E-01   712   0.708E-01    0.134E+01
RMM:  20    -0.175258135436E+03    0.36866E+00   -0.24426E-01   703   0.759E-01    0.108E+01
RMM:  21    -0.175087710958E+03    0.17042E+00   -0.23034E-01   697   0.725E-01    0.778E+00
RMM:  22    -0.175025581211E+03    0.62130E-01   -0.24112E-01   704   0.742E-01    0.556E+00
RMM:  23    -0.174984182848E+03    0.41398E-01   -0.19347E-01   701   0.688E-01    0.638E+00
RMM:  24    -0.174999025231E+03   -0.14842E-01   -0.14601E-01   695   0.600E-01    0.725E+00
RMM:  25    -0.174816494899E+03    0.18253E+00   -0.93941E-02   696   0.501E-01    0.411E+00
RMM:  26    -0.174786619233E+03    0.29876E-01   -0.61875E-02   693   0.401E-01    0.396E+00
RMM:  27    -0.174744146535E+03    0.42473E-01   -0.40216E-02   694   0.323E-01    0.308E+00
RMM:  28    -0.174715026217E+03    0.29120E-01   -0.22113E-02   696   0.246E-01    0.213E+00
RMM:  29    -0.174695060464E+03    0.19966E-01   -0.10582E-02   693   0.174E-01    0.127E+00
RMM:  30    -0.174692307157E+03    0.27533E-02   -0.99228E-03   697   0.152E-01    0.145E+00
RMM:  31    -0.174685182881E+03    0.71243E-02   -0.90444E-03   695   0.146E-01    0.118E+00
RMM:  32    -0.174681985278E+03    0.31976E-02   -0.83936E-03   694   0.141E-01    0.110E+00
RMM:  33    -0.174677519628E+03    0.44657E-02   -0.61411E-03   690   0.127E-01    0.817E-01
RMM:  34    -0.174680686678E+03   -0.31671E-02   -0.50247E-03   693   0.112E-01    0.110E+00
RMM:  35    -0.174678674286E+03    0.20124E-02   -0.47644E-03   693   0.112E-01    0.730E-01
RMM:  36    -0.174678273510E+03    0.40078E-03   -0.22572E-03   689   0.783E-02    0.607E-01
RMM:  37    -0.174679018179E+03   -0.74467E-03   -0.17290E-03   689   0.645E-02    0.457E-01
RMM:  38    -0.174679849799E+03   -0.83162E-03   -0.10168E-03   688   0.504E-02    0.347E-01
RMM:  39    -0.174681577493E+03   -0.17277E-02   -0.72852E-04   670   0.422E-02    0.351E-01
RMM:  40    -0.174683637254E+03   -0.20598E-02   -0.57703E-04   599   0.377E-02    0.207E-01
RMM:  41    -0.174685190577E+03   -0.15533E-02   -0.36554E-04   470   0.304E-02    0.215E-01
RMM:  42    -0.174688477753E+03   -0.32872E-02   -0.49522E-04   545   0.323E-02    0.180E-01
RMM:  43    -0.174689838011E+03   -0.13603E-02   -0.24626E-04   425   0.242E-02    0.122E-01
RMM:  44    -0.174692653331E+03   -0.28153E-02   -0.36206E-04   464   0.260E-02    0.182E-01
RMM:  45    -0.174695537428E+03   -0.28841E-02   -0.42764E-04   509   0.263E-02    0.102E-01
RMM:  46    -0.174696691918E+03   -0.11545E-02   -0.17112E-04   425   0.176E-02    0.995E-02
RMM:  47    -0.174698760794E+03   -0.20689E-02   -0.22682E-04   431   0.173E-02    0.808E-02
RMM:  48    -0.174699336383E+03   -0.57559E-03   -0.95644E-05   418   0.122E-02    0.681E-02
RMM:  49    -0.174700371747E+03   -0.10354E-02   -0.88206E-05   415   0.113E-02    0.637E-02
RMM:  50    -0.174701113956E+03   -0.74221E-03   -0.69157E-05   412   0.101E-02    0.386E-02
RMM:  51    -0.174701575582E+03   -0.46163E-03   -0.40251E-05   398   0.773E-03    0.440E-02
RMM:  52    -0.174702238587E+03   -0.66300E-03   -0.33219E-05   408   0.689E-03    0.298E-02
RMM:  53    -0.174702488471E+03   -0.24988E-03   -0.15665E-05   286   0.502E-03    0.245E-02
RMM:  54    -0.174702906670E+03   -0.41820E-03   -0.14204E-05   266   0.488E-03    0.241E-02
RMM:  55    -0.174703067058E+03   -0.16039E-03   -0.51068E-06   172   0.420E-03    0.136E-02
RMM:  56    -0.174703297352E+03   -0.23029E-03   -0.43928E-06   168   0.403E-03    0.115E-02
RMM:  57    -0.174703438250E+03   -0.14090E-03   -0.46298E-06   163   0.374E-03    0.102E-02
RMM:  58    -0.174703654390E+03   -0.21614E-03   -0.62589E-06   177   0.378E-03    0.113E-02
RMM:  59    -0.174703815053E+03   -0.16066E-03   -0.40401E-06   143   0.347E-03    0.729E-03
RMM:  60    -0.174703953324E+03   -0.13827E-03   -0.45951E-06   143   0.356E-03    0.639E-03
RMM:  61    -0.174703964828E+03   -0.11504E-04   -0.20643E-07    62   0.315E-03
   1 F= -.17470396E+03 E0= -.17469295E+03  d E =-.440450E-01
