<?xml version="1.0" encoding="ISO-8859-1"?>
<modeling>
 <generator>
  <i name="program" type="string">vasp </i>
  <i name="version" type="string">5.4.4.18Apr17-6-g9f103f2a35  </i>
  <i name="subversion" type="string">(build Sep 03 2018 23:53:05) complex            parallel </i>
  <i name="platform" type="string">LinuxIFC </i>
  <i name="date" type="string">2021 12 02 </i>
  <i name="time" type="string">15:51:28 </i>
 </generator>
 <incar>
  <i type="string" name="SYSTEM"> 6_Pd100_top_free_z(O)</i>
  <i type="int" name="ISTART">     0</i>
  <i type="string" name="PREC">normal   			! encut=max(enmax), ngx,y,z</i>
  <i type="string" name="ALGO"> Fast     			! Mix RMM-DIIS and Dav</i>
  <i type="logical" name="ADDGRID"> F  </i>
  <i type="int" name="ISPIN">     1</i>
  <i type="int" name="ICHARG">     2</i>
  <i type="int" name="NELM">   100</i>
  <i type="int" name="NELMIN">     6</i>
  <i type="int" name="IBRION">     2</i>
  <i name="EDIFF">      0.00010000</i>
  <i name="EDIFFG">     -0.05000000</i>
  <i type="int" name="NSW">     0</i>
  <i type="int" name="ISIF">     2</i>
  <i type="int" name="ISYM">     2</i>
  <i name="ENCUT">    400.00000000</i>
  <i type="string" name="LREAL"> Auto     			! Auto or A projection done</i>
  <i type="int" name="ISMEAR">     2</i>
  <i name="SIGMA">      0.20000000</i>
  <i type="logical" name="LWAVE"> F  </i>
  <i type="logical" name="LCHARG"> F  </i>
  <v type="int" name="KPOINT_BSE">    -1     0     0     0</v>
  <i type="int" name="MAXMEM"> 10000</i>
  <i type="int" name="NELM">   100</i>
  <i type="string" name="GGA"> RP         			! Revised PBE</i>
 </incar>
 <structure name="primitive_cell" >
  <crystal>
   <varray name="basis" >
    <v>      30.00000000       0.00000000       0.00000000 </v>
    <v>       0.00000000      30.00000000       0.00000000 </v>
    <v>       0.00000000       0.00000000      30.00000000 </v>
   </varray>
   <i name="volume">  27000.00000000 </i>
   <varray name="rec_basis" >
    <v>       0.03333333       0.00000000       0.00000000 </v>
    <v>       0.00000000       0.03333333       0.00000000 </v>
    <v>       0.00000000       0.00000000       0.03333333 </v>
   </varray>
  </crystal>
  <varray name="positions" >
   <v>       0.44576020       0.32826710       0.41691983 </v>
   <v>      -0.44576020       0.32826710       0.41691983 </v>
   <v>      -0.50000000       0.38250690       0.34021317 </v>
   <v>      -0.50000000       0.27609440      -0.50000000 </v>
   <v>       0.38804720       0.38804720       0.34167483 </v>
   <v>      -0.50000000       0.38416601      -0.50000000 </v>
   <v>       0.44208300       0.44208300       0.41809300 </v>
   <v>       0.38317830       0.38317830      -0.50000000 </v>
   <v>      -0.44208300       0.44208300       0.41809300 </v>
   <v>       0.44576020       0.32826710      -0.41691977 </v>
   <v>       0.32826705       0.44576024       0.41691983 </v>
   <v>      -0.38804720       0.38804720       0.34167483 </v>
   <v>      -0.38317830       0.38317830      -0.50000000 </v>
   <v>      -0.50000000      -0.50000000       0.33478917 </v>
   <v>      -0.50000000      -0.50000000      -0.50000000 </v>
   <v>      -0.44576020       0.32826710      -0.41691977 </v>
   <v>       0.38250685      -0.49999995       0.34021317 </v>
   <v>       0.44208300       0.44208300      -0.41809297 </v>
   <v>       0.38416599      -0.49999998      -0.50000000 </v>
   <v>      -0.44208300       0.44208300      -0.41809297 </v>
   <v>       0.44208298      -0.44208298       0.41809300 </v>
   <v>       0.32826705       0.44576024      -0.41691977 </v>
   <v>      -0.50000000       0.38250690      -0.34021320 </v>
   <v>       0.32826712      -0.44576022       0.41691983 </v>
   <v>      -0.38250685      -0.49999995       0.34021317 </v>
   <v>      -0.32826705       0.44576024       0.41691983 </v>
   <v>       0.27609443       0.49999998      -0.50000000 </v>
   <v>       0.38804720       0.38804720      -0.34167487 </v>
   <v>      -0.38416599      -0.49999998      -0.50000000 </v>
   <v>      -0.44208298      -0.44208298       0.41809300 </v>
   <v>       0.44208298      -0.44208298      -0.41809297 </v>
   <v>      -0.38804720       0.38804720      -0.34167487 </v>
   <v>       0.38804722      -0.38804722       0.34167483 </v>
   <v>       0.38250685      -0.49999995      -0.34021320 </v>
   <v>       0.32826712      -0.44576022      -0.41691977 </v>
   <v>      -0.32826705       0.44576024      -0.41691977 </v>
   <v>       0.50000000      -0.38250681       0.34021317 </v>
   <v>      -0.50000000      -0.38416596      -0.50000000 </v>
   <v>      -0.44208298      -0.44208298      -0.41809297 </v>
   <v>      -0.50000000      -0.50000000      -0.33478913 </v>
   <v>       0.38317828      -0.38317828      -0.50000000 </v>
   <v>      -0.32826712      -0.44576022       0.41691983 </v>
   <v>      -0.27609443       0.49999998      -0.50000000 </v>
   <v>      -0.38804722      -0.38804722       0.34167483 </v>
   <v>      -0.38250685      -0.49999995      -0.34021320 </v>
   <v>       0.44576027      -0.32826707       0.41691983 </v>
   <v>      -0.38317828      -0.38317828      -0.50000000 </v>
   <v>      -0.32826712      -0.44576022      -0.41691977 </v>
   <v>      -0.44576027      -0.32826707       0.41691983 </v>
   <v>       0.47664803       0.48182630      -0.24116857 </v>
   <v>       0.38804722      -0.38804722      -0.34167487 </v>
   <v>      -0.50000000      -0.38250681      -0.34021320 </v>
   <v>       0.44576027      -0.32826707      -0.41691977 </v>
   <v>      -0.44576027      -0.32826707      -0.41691977 </v>
   <v>      -0.50000000      -0.27609445       0.50000000 </v>
   <v>      -0.38804722      -0.38804722      -0.34167487 </v>
   <v>       0.47327770       0.47920333      -0.20381190 </v>
  </varray>
 </structure>
 <varray name="primitive_index" >
  <v type="int" >        1 </v>
  <v type="int" >        3 </v>
  <v type="int" >        5 </v>
  <v type="int" >        7 </v>
  <v type="int" >       15 </v>
  <v type="int" >       29 </v>
  <v type="int" >       28 </v>
  <v type="int" >       34 </v>
  <v type="int" >       21 </v>
  <v type="int" >       19 </v>
  <v type="int" >       22 </v>
  <v type="int" >       11 </v>
  <v type="int" >       36 </v>
  <v type="int" >       38 </v>
  <v type="int" >       52 </v>
  <v type="int" >       24 </v>
  <v type="int" >       32 </v>
  <v type="int" >       44 </v>
  <v type="int" >       48 </v>
  <v type="int" >       42 </v>
  <v type="int" >       43 </v>
  <v type="int" >       40 </v>
  <v type="int" >        6 </v>
  <v type="int" >        4 </v>
  <v type="int" >       30 </v>
  <v type="int" >       26 </v>
  <v type="int" >        8 </v>
  <v type="int" >       16 </v>
  <v type="int" >       49 </v>
  <v type="int" >       47 </v>
  <v type="int" >       53 </v>
  <v type="int" >       12 </v>
  <v type="int" >       13 </v>
  <v type="int" >       33 </v>
  <v type="int" >       25 </v>
  <v type="int" >       45 </v>
  <v type="int" >       50 </v>
  <v type="int" >       55 </v>
  <v type="int" >       54 </v>
  <v type="int" >       39 </v>
  <v type="int" >       37 </v>
  <v type="int" >        2 </v>
  <v type="int" >        9 </v>
  <v type="int" >       17 </v>
  <v type="int" >       31 </v>
  <v type="int" >       27 </v>
  <v type="int" >       35 </v>
  <v type="int" >       20 </v>
  <v type="int" >       23 </v>
  <v type="int" >       56 </v>
  <v type="int" >       14 </v>
  <v type="int" >       51 </v>
  <v type="int" >       46 </v>
  <v type="int" >       41 </v>
  <v type="int" >       10 </v>
  <v type="int" >       18 </v>
  <v type="int" >       57 </v>
 </varray>
 <kpoints>
  <generation param="Monkhorst-Pack">
   <v type="int" name="divisions">       1        1        1 </v>
   <v name="usershift">      0.00000000       0.00000000       0.00000000 </v>
   <v name="genvec1">      1.00000000       0.00000000       0.00000000 </v>
   <v name="genvec2">      0.00000000       1.00000000       0.00000000 </v>
   <v name="genvec3">      0.00000000       0.00000000       1.00000000 </v>
   <v name="shift">      0.00000000       0.00000000       0.00000000 </v>
  </generation>
  <varray name="kpointlist" >
   <v>       0.00000000       0.00000000       0.00000000 </v>
  </varray>
  <varray name="weights" >
   <v>       1.00000000 </v>
  </varray>
 </kpoints>
 <parameters>
  <separator name="general" >
   <i type="string" name="SYSTEM">6_Pd100_top_free_z(O)</i>
   <i type="logical" name="LCOMPAT"> F  </i>
  </separator>
  <separator name="electronic" >
   <i type="string" name="PREC">normal</i>
   <i name="ENMAX">    400.00000000</i>
   <i name="ENAUG">    644.87300000</i>
   <i name="EDIFF">      0.00010000</i>
   <i type="int" name="IALGO">    68</i>
   <i type="int" name="IWAVPR">    10</i>
   <i type="int" name="NBANDS">   336</i>
   <i name="NELECT">    560.00000000</i>
   <i type="int" name="TURBO">     0</i>
   <i type="int" name="IRESTART">     0</i>
   <i type="int" name="NREBOOT">     0</i>
   <i type="int" name="NMIN">     0</i>
   <i name="EREF">      0.00000000</i>
   <separator name="electronic smearing" >
    <i type="int" name="ISMEAR">     2</i>
    <i name="SIGMA">      0.20000000</i>
    <i name="KSPACING">      0.50000000</i>
    <i type="logical" name="KGAMMA"> T  </i>
   </separator>
   <separator name="electronic projectors" >
    <i type="logical" name="LREAL"> T  </i>
    <v name="ROPT">     -0.00050000     -0.00050000     -0.00050000</v>
    <i type="int" name="LMAXPAW">  -100</i>
    <i type="int" name="LMAXMIX">     2</i>
    <i type="logical" name="NLSPLINE"> F  </i>
   </separator>
   <separator name="electronic startup" >
    <i type="int" name="ISTART">     0</i>
    <i type="int" name="ICHARG">     2</i>
    <i type="int" name="INIWAV">     1</i>
   </separator>
   <separator name="electronic spin" >
    <i type="int" name="ISPIN">     1</i>
    <i type="logical" name="LNONCOLLINEAR"> F  </i>
    <v name="MAGMOM">      1.00000000      1.00000000      1.00000000      1.00000000      1.00000000      1.00000000      1.00000000      1.00000000      1.00000000      1.00000000      1.00000000      1.00000000      1.00000000      1.00000000      1.00000000      1.00000000      1.00000000      1.00000000      1.00000000      1.00000000
      1.00000000      1.00000000      1.00000000      1.00000000      1.00000000      1.00000000      1.00000000      1.00000000      1.00000000      1.00000000      1.00000000      1.00000000      1.00000000      1.00000000      1.00000000      1.00000000      1.00000000      1.00000000      1.00000000      1.00000000
      1.00000000      1.00000000      1.00000000      1.00000000      1.00000000      1.00000000      1.00000000      1.00000000      1.00000000      1.00000000      1.00000000      1.00000000      1.00000000      1.00000000      1.00000000      1.00000000      1.00000000</v>
    <i name="NUPDOWN">     -1.00000000</i>
    <i type="logical" name="LSORBIT"> F  </i>
    <v name="SAXIS">      0.00000000      0.00000000      1.00000000</v>
    <i type="logical" name="LSPIRAL"> F  </i>
    <v name="QSPIRAL">      0.00000000      0.00000000      0.00000000</v>
    <i type="logical" name="LZEROZ"> F  </i>
   </separator>
   <separator name="electronic exchange-correlation" >
    <i type="logical" name="LASPH"> F  </i>
    <i type="logical" name="LMETAGGA"> F  </i>
   </separator>
   <separator name="electronic convergence" >
    <i type="int" name="NELM">   100</i>
    <i type="int" name="NELMDL">    -5</i>
    <i type="int" name="NELMIN">     6</i>
    <i name="ENINI">    400.00000000</i>
    <separator name="electronic convergence detail" >
     <i type="logical" name="LDIAG"> T  </i>
     <i type="logical" name="LSUBROT"> F  </i>
     <i name="WEIMIN">      0.00000000</i>
     <i name="EBREAK">      0.00000007</i>
     <i name="DEPER">      0.30000000</i>
     <i type="int" name="NRMM">     4</i>
     <i name="TIME">      0.40000000</i>
    </separator>
   </separator>
   <separator name="electronic mixer" >
    <i name="AMIX">      0.40000000</i>
    <i name="BMIX">      1.00000000</i>
    <i name="AMIN">      0.10000000</i>
    <i name="AMIX_MAG">      1.60000000</i>
    <i name="BMIX_MAG">      1.00000000</i>
    <separator name="electronic mixer details" >
     <i type="int" name="IMIX">     4</i>
     <i type="logical" name="MIXFIRST"> F  </i>
     <i type="int" name="MAXMIX">   -45</i>
     <i name="WC">    100.00000000</i>
     <i type="int" name="INIMIX">     1</i>
     <i type="int" name="MIXPRE">     1</i>
     <i type="int" name="MREMOVE">     5</i>
    </separator>
   </separator>
   <separator name="electronic dipolcorrection" >
    <i type="logical" name="LDIPOL"> F  </i>
    <i type="logical" name="LMONO"> F  </i>
    <i type="int" name="IDIPOL">     0</i>
    <i name="EPSILON">      1.00000000</i>
    <v name="DIPOL">   -100.00000000   -100.00000000   -100.00000000</v>
    <i name="EFIELD">      0.00000000</i>
   </separator>
  </separator>
  <separator name="grids" >
   <i type="int" name="NGX">   150</i>
   <i type="int" name="NGY">   150</i>
   <i type="int" name="NGZ">   150</i>
   <i type="int" name="NGXF">   300</i>
   <i type="int" name="NGYF">   300</i>
   <i type="int" name="NGZF">   300</i>
   <i type="logical" name="ADDGRID"> F  </i>
  </separator>
  <separator name="ionic" >
   <i type="int" name="NSW">     0</i>
   <i type="int" name="IBRION">    -1</i>
   <i type="int" name="MDALGO">     0</i>
   <i type="int" name="ISIF">     2</i>
   <i name="PSTRESS">      0.00000000</i>
   <i name="EDIFFG">     -0.05000000</i>
   <i type="int" name="NFREE">     1</i>
   <i name="POTIM">      0.50000000</i>
   <i name="SMASS">     -3.00000000</i>
   <i name="SCALEE">      1.00000000</i>
  </separator>
  <separator name="ionic md" >
   <i name="TEBEG">      0.00010000</i>
   <i name="TEEND">      0.00010000</i>
   <i type="int" name="NBLOCK">     1</i>
   <i type="int" name="KBLOCK">     1</i>
   <i type="int" name="NPACO">   256</i>
   <i name="APACO">     16.00000000</i>
  </separator>
  <separator name="symmetry" >
   <i type="int" name="ISYM">     2</i>
   <i name="SYMPREC">      0.00001000</i>
  </separator>
  <separator name="dos" >
   <i type="int" name="LORBIT">     0</i>
   <v name="RWIGS">     -1.00000000     -1.00000000     -1.00000000</v>
   <i type="int" name="NEDOS">   301</i>
   <i name="EMIN">     10.00000000</i>
   <i name="EMAX">    -10.00000000</i>
   <i name="EFERMI">      0.00000000</i>
  </separator>
  <separator name="writing" >
   <i type="int" name="NWRITE">     2</i>
   <i type="logical" name="LWAVE"> F  </i>
   <i type="logical" name="LDOWNSAMPLE"> F  </i>
   <i type="logical" name="LCHARG"> F  </i>
   <i type="logical" name="LPARD"> F  </i>
   <i type="logical" name="LVTOT"> F  </i>
   <i type="logical" name="LVHAR"> F  </i>
   <i type="logical" name="LELF"> F  </i>
   <i type="logical" name="LOPTICS"> F  </i>
   <v name="STM">      0.00000000      0.00000000      0.00000000      0.00000000      0.00000000      0.00000000      0.00000000</v>
  </separator>
  <separator name="performance" >
   <i type="int" name="NPAR">     1</i>
   <i type="int" name="NSIM">     4</i>
   <i type="int" name="NBLK">    -1</i>
   <i type="logical" name="LPLANE"> T  </i>
   <i type="logical" name="LSCALAPACK"> T  </i>
   <i type="logical" name="LSCAAWARE"> F  </i>
   <i type="logical" name="LSCALU"> F  </i>
   <i type="logical" name="LASYNC"> F  </i>
   <i type="logical" name="LORBITALREAL"> F  </i>
  </separator>
  <separator name="miscellaneous" >
   <i type="int" name="IDIOT">     3</i>
   <i type="int" name="ISPECIAL">     0</i>
   <i type="logical" name="LMUSIC"> F  </i>
   <v name="POMASS">    106.42000000     12.01100000     16.00000000</v>
   <v name="DARWINR">      0.00000000      0.00000000      0.00000000</v>
   <v name="DARWINV">      1.00000000      1.00000000      1.00000000</v>
   <i type="logical" name="LCORR"> T  </i>
  </separator>
  <i type="logical" name="GGA_COMPAT"> T  </i>
  <i type="logical" name="LBERRY"> F  </i>
  <i type="int" name="ICORELEVEL">     0</i>
  <i type="logical" name="LDAU"> F  </i>
  <i type="int" name="I_CONSTRAINED_M">     0</i>
  <separator name="electronic exchange-correlation" >
   <i type="string" name="GGA">RP</i>
   <i type="int" name="VOSKOWN">     0</i>
   <i type="logical" name="LHFCALC"> F  </i>
   <i type="string" name="PRECFOCK"></i>
   <i type="logical" name="LSYMGRAD"> F  </i>
   <i type="logical" name="LHFONE"> F  </i>
   <i type="logical" name="LRHFCALC"> F  </i>
   <i type="logical" name="LTHOMAS"> F  </i>
   <i type="logical" name="LMODELHF"> F  </i>
   <i name="ENCUT4O">     -1.00000000</i>
   <i type="int" name="EXXOEP">     0</i>
   <i type="int" name="FOURORBIT">     0</i>
   <i name="AEXX">      0.00000000</i>
   <i name="HFALPHA">      0.00000000</i>
   <i name="MCALPHA">      0.00000000</i>
   <i name="ALDAX">      1.00000000</i>
   <i name="AGGAX">      1.00000000</i>
   <i name="ALDAC">      1.00000000</i>
   <i name="AGGAC">      1.00000000</i>
   <i type="int" name="NKREDX">     1</i>
   <i type="int" name="NKREDY">     1</i>
   <i type="int" name="NKREDZ">     1</i>
   <i type="logical" name="SHIFTRED"> F  </i>
   <i type="logical" name="ODDONLY"> F  </i>
   <i type="logical" name="EVENONLY"> F  </i>
   <i type="int" name="LMAXFOCK">     0</i>
   <i type="int" name="NMAXFOCKAE">     0</i>
   <i type="logical" name="LFOCKAEDFT"> F  </i>
   <i name="HFSCREEN">      0.00000000</i>
   <i name="HFSCREENC">      0.00000000</i>
   <i type="int" name="NBANDSGWLOW">     0</i>
  </separator>
  <separator name="vdW DFT" >
   <i type="logical" name="LUSE_VDW"> F  </i>
   <i name="Zab_VDW">     -0.84910000</i>
   <i name="PARAM1">      0.12340000</i>
   <i name="PARAM2">      1.00000000</i>
   <i name="PARAM3">      0.00000000</i>
  </separator>
  <separator name="model GW" >
   <i type="int" name="MODEL_GW">     0</i>
   <i name="MODEL_EPS0">    284.21052632</i>
   <i name="MODEL_ALPHA">      1.00000000</i>
  </separator>
  <separator name="linear response parameters" >
   <i type="logical" name="LEPSILON"> F  </i>
   <i type="logical" name="LRPA"> F  </i>
   <i type="logical" name="LNABLA"> F  </i>
   <i type="logical" name="LVEL"> F  </i>
   <i type="int" name="KINTER">     0</i>
   <i name="CSHIFT">      0.10000000</i>
   <i name="OMEGAMAX">     -1.00000000</i>
   <i name="DEG_THRESHOLD">      0.00200000</i>
   <i name="RTIME">     -0.10000000</i>
   <i name="WPLASMAI">      0.00000000</i>
   <v name="DFIELD">      0.00000000      0.00000000      0.00000000</v>
   <v name="WPLASMA">      0.00000000      0.00000000      0.00000000      0.00000000      0.00000000      0.00000000      0.00000000      0.00000000      0.00000000</v>
  </separator>
  <separator name="orbital magnetization" >
   <i type="logical" name="NUCIND"> F  </i>
   <v name="MAGPOS">      0.00000000      0.00000000      0.00000000</v>
   <i type="logical" name="LNICSALL"> T  </i>
   <i type="logical" name="ORBITALMAG"> F  </i>
   <i type="logical" name="LMAGBLOCH"> F  </i>
   <i type="logical" name="LCHIMAG"> F  </i>
   <i type="logical" name="LGAUGE"> T  </i>
   <i type="int" name="MAGATOM">     0</i>
   <v name="MAGDIPOL">      0.00000000      0.00000000      0.00000000</v>
   <v name="AVECCONST">      0.00000000      0.00000000      0.00000000</v>
  </separator>
  <separator name="response functions" >
   <i type="logical" name="LADDER"> F  </i>
   <i type="logical" name="LRPAFORCE"> F  </i>
   <i type="logical" name="LFXC"> F  </i>
   <i type="logical" name="LHARTREE"> T  </i>
   <i type="int" name="IBSE">     0</i>
   <v type="int" name="KPOINT">    -1     0     0     0</v>
   <i type="logical" name="LTCTE"> F  </i>
   <i type="logical" name="LTETE"> F  </i>
   <i type="logical" name="LTRIPLET"> F  </i>
   <i type="logical" name="LFXCEPS"> F  </i>
   <i type="logical" name="LFXHEG"> F  </i>
   <i type="int" name="NATURALO">     2</i>
   <i type="logical" name="L2ORDER"> F  </i>
   <i type="logical" name="LMP2LT"> F  </i>
   <i type="logical" name="LUSEW"> F  </i>
   <i name="ENCUTGW">     -2.00000000</i>
   <i name="ENCUTGWSOFT">     -2.00000000</i>
   <i name="ENCUTLF">     -1.00000000</i>
   <i type="int" name="LMAXMP2">    -1</i>
   <i name="SCISSOR">      0.00000000</i>
   <i type="int" name="NOMEGA">     0</i>
   <i type="int" name="NOMEGAR">     0</i>
   <i type="int" name="NBANDSGW">    -1</i>
   <i type="int" name="NBANDSO">    -1</i>
   <i type="int" name="NBANDSV">    -1</i>
   <i type="int" name="NELM">   100</i>
   <i type="int" name="NELMHF">     1</i>
   <i type="int" name="DIM">     3</i>
   <i type="int" name="ANTIRES">     0</i>
   <i name="OMEGAMAX">    -30.00000000</i>
   <i name="OMEGAMIN">    -30.00000000</i>
   <i name="OMEGATL">   -200.00000000</i>
   <i type="int" name="OMEGAGRID">   140</i>
   <i name="CSHIFT">     -0.10000000</i>
   <i type="logical" name="SELFENERGY"> F  </i>
   <i type="logical" name="LSPECTRAL"> F  </i>
   <i type="logical" name="LSPECTRALGW"> F  </i>
   <i type="logical" name="LSINGLES"> F  </i>
   <i type="logical" name="LFERMIGW"> F  </i>
   <i type="logical" name="ODDONLYGW"> F  </i>
   <i type="logical" name="EVENONLYGW"> F  </i>
   <i type="int" name="NKREDLFX">     1</i>
   <i type="int" name="NKREDLFY">     1</i>
   <i type="int" name="NKREDLFZ">     1</i>
   <i type="int" name="MAXMEM"> 10000</i>
   <i type="int" name="TELESCOPE">     0</i>
   <i type="int" name="TAUPAR">     1</i>
   <i type="int" name="OMEGAPAR">    -1</i>
   <i name="LAMBDA">      1.00000000</i>
  </separator>
  <separator name="External order field" >
   <i name="OFIELD_KAPPA">      0.00000000</i>
   <v name="OFIELD_K">      0.00000000      0.00000000      0.00000000</v>
   <i name="OFIELD_Q6_NEAR">      0.00000000</i>
   <i name="OFIELD_Q6_FAR">      0.00000000</i>
   <i name="OFIELD_A">      0.00000000</i>
  </separator>
 </parameters>
 <atominfo>
  <atoms>      57 </atoms>
  <types>       3 </types>
  <array name="atoms" >
   <dimension dim="1">ion</dimension>
   <field type="string">element</field>
   <field type="int">atomtype</field>
   <set>
    <rc><c>Pd</c><c>   1</c></rc>
    <rc><c>Pd</c><c>   1</c></rc>
    <rc><c>Pd</c><c>   1</c></rc>
    <rc><c>Pd</c><c>   1</c></rc>
    <rc><c>Pd</c><c>   1</c></rc>
    <rc><c>Pd</c><c>   1</c></rc>
    <rc><c>Pd</c><c>   1</c></rc>
    <rc><c>Pd</c><c>   1</c></rc>
    <rc><c>Pd</c><c>   1</c></rc>
    <rc><c>Pd</c><c>   1</c></rc>
    <rc><c>Pd</c><c>   1</c></rc>
    <rc><c>Pd</c><c>   1</c></rc>
    <rc><c>Pd</c><c>   1</c></rc>
    <rc><c>Pd</c><c>   1</c></rc>
    <rc><c>Pd</c><c>   1</c></rc>
    <rc><c>Pd</c><c>   1</c></rc>
    <rc><c>Pd</c><c>   1</c></rc>
    <rc><c>Pd</c><c>   1</c></rc>
    <rc><c>Pd</c><c>   1</c></rc>
    <rc><c>Pd</c><c>   1</c></rc>
    <rc><c>Pd</c><c>   1</c></rc>
    <rc><c>Pd</c><c>   1</c></rc>
    <rc><c>Pd</c><c>   1</c></rc>
    <rc><c>Pd</c><c>   1</c></rc>
    <rc><c>Pd</c><c>   1</c></rc>
    <rc><c>Pd</c><c>   1</c></rc>
    <rc><c>Pd</c><c>   1</c></rc>
    <rc><c>Pd</c><c>   1</c></rc>
    <rc><c>Pd</c><c>   1</c></rc>
    <rc><c>Pd</c><c>   1</c></rc>
    <rc><c>Pd</c><c>   1</c></rc>
    <rc><c>Pd</c><c>   1</c></rc>
    <rc><c>Pd</c><c>   1</c></rc>
    <rc><c>Pd</c><c>   1</c></rc>
    <rc><c>Pd</c><c>   1</c></rc>
    <rc><c>Pd</c><c>   1</c></rc>
    <rc><c>Pd</c><c>   1</c></rc>
    <rc><c>Pd</c><c>   1</c></rc>
    <rc><c>Pd</c><c>   1</c></rc>
    <rc><c>Pd</c><c>   1</c></rc>
    <rc><c>Pd</c><c>   1</c></rc>
    <rc><c>Pd</c><c>   1</c></rc>
    <rc><c>Pd</c><c>   1</c></rc>
    <rc><c>Pd</c><c>   1</c></rc>
    <rc><c>Pd</c><c>   1</c></rc>
    <rc><c>Pd</c><c>   1</c></rc>
    <rc><c>Pd</c><c>   1</c></rc>
    <rc><c>Pd</c><c>   1</c></rc>
    <rc><c>Pd</c><c>   1</c></rc>
    <rc><c>Pd</c><c>   1</c></rc>
    <rc><c>Pd</c><c>   1</c></rc>
    <rc><c>Pd</c><c>   1</c></rc>
    <rc><c>Pd</c><c>   1</c></rc>
    <rc><c>Pd</c><c>   1</c></rc>
    <rc><c>Pd</c><c>   1</c></rc>
    <rc><c>C </c><c>   2</c></rc>
    <rc><c>O </c><c>   3</c></rc>
   </set>
  </array>
  <array name="atomtypes" >
   <dimension dim="1">type</dimension>
   <field type="int">atomspertype</field>
   <field type="string">element</field>
   <field>mass</field>
   <field>valence</field>
   <field type="string">pseudopotential</field>
   <set>
    <rc><c>  55</c><c>Pd</c><c>    106.42000000</c><c>     10.00000000</c><c>  PAW_PBE Pd 04Jan2005                  </c></rc>
    <rc><c>   1</c><c>C </c><c>     12.01100000</c><c>      4.00000000</c><c>  PAW_PBE C 08Apr2002                   </c></rc>
    <rc><c>   1</c><c>O </c><c>     16.00000000</c><c>      6.00000000</c><c>  PAW_PBE O 08Apr2002                   </c></rc>
   </set>
  </array>
 </atominfo>
 <structure name="initialpos" >
  <crystal>
   <varray name="basis" >
    <v>      30.00000000       0.00000000       0.00000000 </v>
    <v>       0.00000000      30.00000000       0.00000000 </v>
    <v>       0.00000000       0.00000000      30.00000000 </v>
   </varray>
   <i name="volume">  27000.00000000 </i>
   <varray name="rec_basis" >
    <v>       0.03333333       0.00000000       0.00000000 </v>
    <v>       0.00000000       0.03333333       0.00000000 </v>
    <v>       0.00000000       0.00000000       0.03333333 </v>
   </varray>
  </crystal>
  <varray name="positions" >
   <v>       0.44576020       0.32826710       0.41691983 </v>
   <v>       0.67173288       0.55423978       0.41691983 </v>
   <v>       0.55423980       0.32826710       0.41691983 </v>
   <v>       0.32826712       0.55423978       0.41691983 </v>
   <v>       0.50000000       0.38250690       0.34021317 </v>
   <v>       0.50000000       0.38250690       0.65978680 </v>
   <v>       0.50000000       0.27609440       0.50000000 </v>
   <v>       0.27609443       0.49999998       0.50000000 </v>
   <v>       0.72390557       0.49999998       0.50000000 </v>
   <v>       0.50000000       0.72390555       0.50000000 </v>
   <v>       0.61195280       0.38804720       0.34167483 </v>
   <v>       0.61195280       0.38804720       0.65832513 </v>
   <v>       0.38804722       0.61195278       0.34167483 </v>
   <v>       0.38804722       0.61195278       0.65832513 </v>
   <v>       0.38804720       0.38804720       0.34167483 </v>
   <v>       0.38804720       0.38804720       0.65832513 </v>
   <v>       0.61195278       0.61195278       0.34167483 </v>
   <v>       0.61195278       0.61195278       0.65832513 </v>
   <v>       0.44576020       0.32826710       0.58308023 </v>
   <v>       0.67173288       0.55423978       0.58308023 </v>
   <v>       0.55791699       0.44208301       0.41809300 </v>
   <v>       0.32826705       0.44576024       0.41691983 </v>
   <v>       0.55423973       0.67173293       0.41691983 </v>
   <v>       0.55423980       0.32826710       0.58308023 </v>
   <v>       0.32826712       0.55423978       0.58308023 </v>
   <v>       0.67173295       0.44576024       0.41691983 </v>
   <v>       0.44576027       0.67173293       0.41691983 </v>
   <v>       0.44208301       0.44208301       0.41809300 </v>
   <v>       0.50000000       0.38416601       0.50000000 </v>
   <v>       0.61749315       0.50000005       0.34021317 </v>
   <v>       0.61749315       0.50000005       0.65978680 </v>
   <v>       0.38250685       0.50000005       0.34021317 </v>
   <v>       0.38250685       0.50000005       0.65978680 </v>
   <v>       0.38317830       0.38317830       0.50000000 </v>
   <v>       0.61682172       0.61682172       0.50000000 </v>
   <v>       0.61682170       0.38317830       0.50000000 </v>
   <v>       0.38317828       0.61682172       0.50000000 </v>
   <v>       0.50000000       0.50000000       0.33478917 </v>
   <v>       0.50000000       0.50000000       0.66521087 </v>
   <v>       0.32826705       0.44576024       0.58308023 </v>
   <v>       0.55423973       0.67173293       0.58308023 </v>
   <v>       0.55791699       0.44208301       0.58190703 </v>
   <v>       0.44208298       0.55791702       0.41809300 </v>
   <v>       0.44208301       0.44208301       0.58190703 </v>
   <v>       0.67173295       0.44576024       0.58308023 </v>
   <v>       0.44576027       0.67173293       0.58308023 </v>
   <v>       0.55791702       0.55791702       0.41809300 </v>
   <v>       0.38416599       0.50000002       0.50000000 </v>
   <v>       0.61583401       0.50000002       0.50000000 </v>
   <v>       0.50000000       0.61749319       0.34021317 </v>
   <v>       0.50000000       0.61749319       0.65978680 </v>
   <v>       0.50000000       0.50000000       0.50000000 </v>
   <v>       0.44208298       0.55791702       0.58190703 </v>
   <v>       0.55791702       0.55791702       0.58190703 </v>
   <v>       0.50000000       0.61583404       0.50000000 </v>
   <v>       0.47664803       0.48182630       0.75883143 </v>
   <v>       0.47327770       0.47920333       0.79618810 </v>
  </varray>
  <varray name="selective"  type="logical" >
   <v type="logical" >  F  F  F </v>
   <v type="logical" >  F  F  F </v>
   <v type="logical" >  F  F  F </v>
   <v type="logical" >  F  F  F </v>
   <v type="logical" >  F  F  F </v>
   <v type="logical" >  F  F  F </v>
   <v type="logical" >  F  F  F </v>
   <v type="logical" >  F  F  F </v>
   <v type="logical" >  F  F  F </v>
   <v type="logical" >  F  F  F </v>
   <v type="logical" >  F  F  F </v>
   <v type="logical" >  F  F  F </v>
   <v type="logical" >  F  F  F </v>
   <v type="logical" >  F  F  F </v>
   <v type="logical" >  F  F  F </v>
   <v type="logical" >  F  F  F </v>
   <v type="logical" >  F  F  F </v>
   <v type="logical" >  F  F  F </v>
   <v type="logical" >  F  F  F </v>
   <v type="logical" >  F  F  F </v>
   <v type="logical" >  F  F  F </v>
   <v type="logical" >  F  F  F </v>
   <v type="logical" >  F  F  F </v>
   <v type="logical" >  F  F  F </v>
   <v type="logical" >  F  F  F </v>
   <v type="logical" >  F  F  F </v>
   <v type="logical" >  F  F  F </v>
   <v type="logical" >  F  F  F </v>
   <v type="logical" >  F  F  F </v>
   <v type="logical" >  F  F  F </v>
   <v type="logical" >  F  F  F </v>
   <v type="logical" >  F  F  F </v>
   <v type="logical" >  F  F  F </v>
   <v type="logical" >  F  F  F </v>
   <v type="logical" >  F  F  F </v>
   <v type="logical" >  F  F  F </v>
   <v type="logical" >  F  F  F </v>
   <v type="logical" >  F  F  F </v>
   <v type="logical" >  F  F  F </v>
   <v type="logical" >  F  F  F </v>
   <v type="logical" >  F  F  F </v>
   <v type="logical" >  F  F  F </v>
   <v type="logical" >  F  F  F </v>
   <v type="logical" >  F  F  F </v>
   <v type="logical" >  F  F  F </v>
   <v type="logical" >  F  F  F </v>
   <v type="logical" >  F  F  F </v>
   <v type="logical" >  F  F  F </v>
   <v type="logical" >  F  F  F </v>
   <v type="logical" >  F  F  F </v>
   <v type="logical" >  F  F  F </v>
   <v type="logical" >  F  F  F </v>
   <v type="logical" >  F  F  F </v>
   <v type="logical" >  F  F  F </v>
   <v type="logical" >  F  F  F </v>
   <v type="logical" >  F  F  F </v>
   <v type="logical" >  F  F  F </v>
  </varray>
  <nose>
   <v>      -3.00000000       0.00000000       0.00010000       0.00010000 </v>
  </nose>
 </structure>
 <calculation>
  <scstep>
   <time name="dav">  355.84  355.92</time>
   <time name="total">  370.08  370.16</time>
   <energy>
    <i name="alphaZ">     75.25431677 </i>
    <i name="ewald"> 137690.36321391 </i>
    <i name="hartreedc">-181058.96746589 </i>
    <i name="XCdc">  -1704.14054557 </i>
    <i name="pawpsdc">  44873.02882129 </i>
    <i name="pawaedc"> -41398.84523641 </i>
    <i name="eentropy">      0.00464906 </i>
    <i name="bandstr">    818.69675531 </i>
    <i name="atom">  45086.50549395 </i>
    <i name="e_fr_energy">   4381.90000241 </i>
    <i name="e_wo_entrp">   4381.89535335 </i>
    <i name="e_0_energy">   4381.89884015 </i>
   </energy>
  </scstep>
  <scstep>
   <time name="dav">  572.22  572.23</time>
   <time name="total">  572.22  572.23</time>
   <energy>
    <i name="e_fr_energy">   2012.93445882 </i>
    <i name="e_wo_entrp">   2012.98086750 </i>
    <i name="e_0_energy">   2012.94606099 </i>
   </energy>
  </scstep>
  <scstep>
   <time name="dav">  478.81  478.82</time>
   <time name="total">  478.81  478.82</time>
   <energy>
    <i name="e_fr_energy">    237.89088890 </i>
    <i name="e_wo_entrp">    237.90464777 </i>
    <i name="e_0_energy">    237.89432862 </i>
   </energy>
  </scstep>
  <scstep>
   <time name="dav">  409.36  409.37</time>
   <time name="total">  409.36  409.37</time>
   <energy>
    <i name="e_fr_energy">   -134.12256456 </i>
    <i name="e_wo_entrp">   -134.16686692 </i>
    <i name="e_0_energy">   -134.13364015 </i>
   </energy>
  </scstep>
  <scstep>
   <time name="dav">  501.64  501.64</time>
   <time name="total">  527.74  527.75</time>
   <energy>
    <i name="e_fr_energy">   -178.77572437 </i>
    <i name="e_wo_entrp">   -179.33306039 </i>
    <i name="e_0_energy">   -178.91505837 </i>
   </energy>
  </scstep>
  <scstep>
   <time name="diag">   68.51   68.51</time>
   <time name="diis">  187.52  187.53</time>
   <time name="orth">   13.68   13.68</time>
   <time name="total">  309.62  309.63</time>
   <energy>
    <i name="e_fr_energy">   -178.30570394 </i>
    <i name="e_wo_entrp">   -178.01246467 </i>
    <i name="e_0_energy">   -178.23239412 </i>
   </energy>
  </scstep>
  <scstep>
   <time name="diag">   68.62   68.62</time>
   <time name="diis">  226.14  226.15</time>
   <time name="orth">   13.72   13.72</time>
   <time name="total">  348.98  348.99</time>
   <energy>
    <i name="e_fr_energy">   -180.74882342 </i>
    <i name="e_wo_entrp">   -180.76224968 </i>
    <i name="e_0_energy">   -180.75217999 </i>
   </energy>
  </scstep>
  <scstep>
   <time name="diag">   69.59   69.59</time>
   <time name="diis">  205.37  205.37</time>
   <time name="orth">   13.79   13.79</time>
   <time name="total">  329.63  329.64</time>
   <energy>
    <i name="e_fr_energy">   -182.66348413 </i>
    <i name="e_wo_entrp">   -182.51319879 </i>
    <i name="e_0_energy">   -182.62591279 </i>
   </energy>
  </scstep>
  <scstep>
   <time name="diag">   69.37   69.37</time>
   <time name="diis">  191.62  191.62</time>
   <time name="orth">   13.79   13.79</time>
   <time name="total">  315.10  315.11</time>
   <energy>
    <i name="e_fr_energy">   -181.20185545 </i>
    <i name="e_wo_entrp">   -181.09875526 </i>
    <i name="e_0_energy">   -181.17608040 </i>
   </energy>
  </scstep>
  <scstep>
   <time name="diag">   69.62   69.62</time>
   <time name="diis">  193.01  193.01</time>
   <time name="orth">   13.78   13.78</time>
   <time name="total">  316.76  316.76</time>
   <energy>
    <i name="e_fr_energy">   -178.49177520 </i>
    <i name="e_wo_entrp">   -178.34299359 </i>
    <i name="e_0_energy">   -178.45457980 </i>
   </energy>
  </scstep>
  <scstep>
   <time name="diag">   69.42   69.42</time>
   <time name="diis">  190.51  190.51</time>
   <time name="orth">   13.82   13.82</time>
   <time name="total">  314.40  314.40</time>
   <energy>
    <i name="e_fr_energy">   -176.36936326 </i>
    <i name="e_wo_entrp">   -176.23826297 </i>
    <i name="e_0_energy">   -176.33658819 </i>
   </energy>
  </scstep>
  <scstep>
   <time name="diag">   70.30   70.30</time>
   <time name="diis">  189.87  189.87</time>
   <time name="orth">   13.84   13.84</time>
   <time name="total">  314.98  314.98</time>
   <energy>
    <i name="e_fr_energy">   -175.48346648 </i>
    <i name="e_wo_entrp">   -175.36694792 </i>
    <i name="e_0_energy">   -175.45433684 </i>
   </energy>
  </scstep>
  <scstep>
   <time name="diag">   70.63   70.63</time>
   <time name="diis">  191.92  191.92</time>
   <time name="orth">   13.63   13.63</time>
   <time name="total">  316.74  316.74</time>
   <energy>
    <i name="e_fr_energy">   -176.26644611 </i>
    <i name="e_wo_entrp">   -176.25785084 </i>
    <i name="e_0_energy">   -176.26429729 </i>
   </energy>
  </scstep>
  <scstep>
   <time name="diag">   69.97   69.97</time>
   <time name="diis">  190.90  190.91</time>
   <time name="orth">   13.78   13.78</time>
   <time name="total">  314.95  314.96</time>
   <energy>
    <i name="e_fr_energy">   -175.92385070 </i>
    <i name="e_wo_entrp">   -175.96042684 </i>
    <i name="e_0_energy">   -175.93299473 </i>
   </energy>
  </scstep>
  <scstep>
   <time name="diag">   70.62   70.62</time>
   <time name="diis">  188.57  188.57</time>
   <time name="orth">   13.61   13.61</time>
   <time name="total">  313.08  313.09</time>
   <energy>
    <i name="e_fr_energy">   -175.20987504 </i>
    <i name="e_wo_entrp">   -175.15697053 </i>
    <i name="e_0_energy">   -175.19664891 </i>
   </energy>
  </scstep>
  <scstep>
   <time name="diag">   70.62   70.62</time>
   <time name="diis">  190.22  190.23</time>
   <time name="orth">   13.73   13.73</time>
   <time name="total">  314.99  314.99</time>
   <energy>
    <i name="e_fr_energy">   -174.86750104 </i>
    <i name="e_wo_entrp">   -174.85039273 </i>
    <i name="e_0_energy">   -174.86322396 </i>
   </energy>
  </scstep>
  <scstep>
   <time name="diag">   70.05   70.05</time>
   <time name="diis">  188.19  188.19</time>
   <time name="orth">   13.48   13.48</time>
   <time name="total">  311.82  311.82</time>
   <energy>
    <i name="e_fr_energy">   -174.50050362 </i>
    <i name="e_wo_entrp">   -174.48219835 </i>
    <i name="e_0_energy">   -174.49592730 </i>
   </energy>
  </scstep>
  <scstep>
   <time name="diag">   69.72   69.73</time>
   <time name="diis">  189.82  189.82</time>
   <time name="orth">   13.60   13.60</time>
   <time name="total">  313.38  313.38</time>
   <energy>
    <i name="e_fr_energy">   -174.78607985 </i>
    <i name="e_wo_entrp">   -174.85334128 </i>
    <i name="e_0_energy">   -174.80289521 </i>
   </energy>
  </scstep>
  <scstep>
   <time name="diag">   69.96   69.96</time>
   <time name="diis">  190.21  190.21</time>
   <time name="orth">   13.79   13.79</time>
   <time name="total">  314.37  314.38</time>
   <energy>
    <i name="e_fr_energy">   -174.46930258 </i>
    <i name="e_wo_entrp">   -174.52661159 </i>
    <i name="e_0_energy">   -174.48362983 </i>
   </energy>
  </scstep>
  <scstep>
   <time name="diag">   70.10   70.11</time>
   <time name="diis">  189.63  189.63</time>
   <time name="orth">   13.75   13.75</time>
   <time name="total">  313.90  313.90</time>
   <energy>
    <i name="e_fr_energy">   -174.31847167 </i>
    <i name="e_wo_entrp">   -174.33010214 </i>
    <i name="e_0_energy">   -174.32137928 </i>
   </energy>
  </scstep>
  <scstep>
   <time name="diag">   70.25   70.25</time>
   <time name="diis">  189.66  189.66</time>
   <time name="orth">   13.66   13.65</time>
   <time name="total">  313.71  313.72</time>
   <energy>
    <i name="e_fr_energy">   -174.14001624 </i>
    <i name="e_wo_entrp">   -174.09447027 </i>
    <i name="e_0_energy">   -174.12862975 </i>
   </energy>
  </scstep>
  <scstep>
   <time name="diag">   69.71   69.71</time>
   <time name="diis">  189.38  189.38</time>
   <time name="orth">   13.56   13.56</time>
   <time name="total">  312.80  312.81</time>
   <energy>
    <i name="e_fr_energy">   -174.14008906 </i>
    <i name="e_wo_entrp">   -174.07594790 </i>
    <i name="e_0_energy">   -174.12405377 </i>
   </energy>
  </scstep>
  <scstep>
   <time name="diag">   69.51   69.51</time>
   <time name="diis">  188.95  188.96</time>
   <time name="orth">   13.62   13.62</time>
   <time name="total">  312.32  312.34</time>
   <energy>
    <i name="e_fr_energy">   -174.04319276 </i>
    <i name="e_wo_entrp">   -173.92665969 </i>
    <i name="e_0_energy">   -174.01405949 </i>
   </energy>
  </scstep>
  <scstep>
   <time name="diag">   69.61   69.61</time>
   <time name="diis">  191.50  191.51</time>
   <time name="orth">   13.70   13.70</time>
   <time name="total">  315.28  315.31</time>
   <energy>
    <i name="e_fr_energy">   -173.89049680 </i>
    <i name="e_wo_entrp">   -173.77472940 </i>
    <i name="e_0_energy">   -173.86155495 </i>
   </energy>
  </scstep>
  <scstep>
   <time name="diag">   70.19   70.20</time>
   <time name="diis">  190.07  190.10</time>
   <time name="orth">   13.78   13.78</time>
   <time name="total">  314.71  314.75</time>
   <energy>
    <i name="e_fr_energy">   -173.83890830 </i>
    <i name="e_wo_entrp">   -173.73178830 </i>
    <i name="e_0_energy">   -173.81212830 </i>
   </energy>
  </scstep>
  <scstep>
   <time name="diag">   69.60   69.60</time>
   <time name="diis">  190.03  190.06</time>
   <time name="orth">   13.72   13.72</time>
   <time name="total">  314.15  314.18</time>
   <energy>
    <i name="e_fr_energy">   -173.76868864 </i>
    <i name="e_wo_entrp">   -173.67856387 </i>
    <i name="e_0_energy">   -173.74615745 </i>
   </energy>
  </scstep>
  <scstep>
   <time name="diag">   69.15   69.15</time>
   <time name="diis">  189.26  189.28</time>
   <time name="orth">   13.66   13.66</time>
   <time name="total">  313.14  313.16</time>
   <energy>
    <i name="e_fr_energy">   -173.72316095 </i>
    <i name="e_wo_entrp">   -173.63404650 </i>
    <i name="e_0_energy">   -173.70088233 </i>
   </energy>
  </scstep>
  <scstep>
   <time name="diag">   69.87   69.88</time>
   <time name="diis">  190.23  190.26</time>
   <time name="orth">   13.55   13.55</time>
   <time name="total">  314.72  314.77</time>
   <energy>
    <i name="e_fr_energy">   -173.72900459 </i>
    <i name="e_wo_entrp">   -173.63860474 </i>
    <i name="e_0_energy">   -173.70640463 </i>
   </energy>
  </scstep>
  <scstep>
   <time name="diag">   69.89   69.90</time>
   <time name="diis">  191.07  191.08</time>
   <time name="orth">   13.67   13.67</time>
   <time name="total">  316.21  316.24</time>
   <energy>
    <i name="e_fr_energy">   -173.72464312 </i>
    <i name="e_wo_entrp">   -173.64022396 </i>
    <i name="e_0_energy">   -173.70353833 </i>
   </energy>
  </scstep>
  <scstep>
   <time name="diag">   69.41   69.42</time>
   <time name="diis">  190.55  190.58</time>
   <time name="orth">   13.85   13.85</time>
   <time name="total">  315.19  315.23</time>
   <energy>
    <i name="e_fr_energy">   -173.68899402 </i>
    <i name="e_wo_entrp">   -173.59547359 </i>
    <i name="e_0_energy">   -173.66561391 </i>
   </energy>
  </scstep>
  <scstep>
   <time name="diag">   69.73   69.74</time>
   <time name="diis">  188.82  188.84</time>
   <time name="orth">   13.70   13.70</time>
   <time name="total">  313.87  313.90</time>
   <energy>
    <i name="e_fr_energy">   -173.68785559 </i>
    <i name="e_wo_entrp">   -173.59606128 </i>
    <i name="e_0_energy">   -173.66490701 </i>
   </energy>
  </scstep>
  <scstep>
   <time name="diag">   69.64   69.64</time>
   <time name="diis">  189.26  189.26</time>
   <time name="orth">   13.76   13.76</time>
   <time name="total">  314.18  314.19</time>
   <energy>
    <i name="e_fr_energy">   -173.68187863 </i>
    <i name="e_wo_entrp">   -173.59014753 </i>
    <i name="e_0_energy">   -173.65894585 </i>
   </energy>
  </scstep>
  <scstep>
   <time name="diag">   69.69   69.69</time>
   <time name="diis">  189.90  189.90</time>
   <time name="orth">   13.77   13.77</time>
   <time name="total">  314.84  314.84</time>
   <energy>
    <i name="e_fr_energy">   -173.67593273 </i>
    <i name="e_wo_entrp">   -173.58135502 </i>
    <i name="e_0_energy">   -173.65228830 </i>
   </energy>
  </scstep>
  <scstep>
   <time name="diag">   69.67   69.67</time>
   <time name="diis">  189.69  189.69</time>
   <time name="orth">   13.91   13.91</time>
   <time name="total">  314.78  314.78</time>
   <energy>
    <i name="e_fr_energy">   -173.67560738 </i>
    <i name="e_wo_entrp">   -173.58210908 </i>
    <i name="e_0_energy">   -173.65223281 </i>
   </energy>
  </scstep>
  <scstep>
   <time name="diag">   68.95   68.95</time>
   <time name="diis">  188.05  188.05</time>
   <time name="orth">   13.79   13.79</time>
   <time name="total">  312.57  312.58</time>
   <energy>
    <i name="e_fr_energy">   -173.67510801 </i>
    <i name="e_wo_entrp">   -173.58734369 </i>
    <i name="e_0_energy">   -173.65316693 </i>
   </energy>
  </scstep>
  <scstep>
   <time name="diag">   69.29   69.30</time>
   <time name="diis">  189.00  189.00</time>
   <time name="orth">   13.63   13.63</time>
   <time name="total">  313.63  313.64</time>
   <energy>
    <i name="e_fr_energy">   -173.67532711 </i>
    <i name="e_wo_entrp">   -173.58485289 </i>
    <i name="e_0_energy">   -173.65270856 </i>
   </energy>
  </scstep>
  <scstep>
   <time name="diag">   69.11   69.11</time>
   <time name="diis">  187.32  187.32</time>
   <time name="orth">   13.69   13.69</time>
   <time name="total">  311.98  311.99</time>
   <energy>
    <i name="e_fr_energy">   -173.67812775 </i>
    <i name="e_wo_entrp">   -173.58827276 </i>
    <i name="e_0_energy">   -173.65566400 </i>
   </energy>
  </scstep>
  <scstep>
   <time name="diag">   69.18   69.18</time>
   <time name="diis">  186.84  186.85</time>
   <time name="orth">   13.76   13.76</time>
   <time name="total">  311.58  311.59</time>
   <energy>
    <i name="e_fr_energy">   -173.67941600 </i>
    <i name="e_wo_entrp">   -173.58937398 </i>
    <i name="e_0_energy">   -173.65690550 </i>
   </energy>
  </scstep>
  <scstep>
   <time name="diag">   69.63   69.63</time>
   <time name="diis">  184.94  184.94</time>
   <time name="orth">   13.54   13.54</time>
   <time name="total">  310.39  310.40</time>
   <energy>
    <i name="e_fr_energy">   -173.68198136 </i>
    <i name="e_wo_entrp">   -173.59206576 </i>
    <i name="e_0_energy">   -173.65950246 </i>
   </energy>
  </scstep>
  <scstep>
   <time name="diag">   69.24   69.24</time>
   <time name="diis">  172.89  172.89</time>
   <time name="orth">   13.89   13.89</time>
   <time name="total">  297.94  297.94</time>
   <energy>
    <i name="e_fr_energy">   -173.68469151 </i>
    <i name="e_wo_entrp">   -173.59393150 </i>
    <i name="e_0_energy">   -173.66200151 </i>
   </energy>
  </scstep>
  <scstep>
   <time name="diag">   68.73   68.73</time>
   <time name="diis">  128.92  128.92</time>
   <time name="orth">   13.79   13.79</time>
   <time name="total">  253.94  253.94</time>
   <energy>
    <i name="e_fr_energy">   -173.68578472 </i>
    <i name="e_wo_entrp">   -173.59492983 </i>
    <i name="e_0_energy">   -173.66307100 </i>
   </energy>
  </scstep>
  <scstep>
   <time name="diag">   68.52   68.52</time>
   <time name="diis">  131.02  131.02</time>
   <time name="orth">   13.72   13.72</time>
   <time name="total">  256.06  256.06</time>
   <energy>
    <i name="e_fr_energy">   -173.68838164 </i>
    <i name="e_wo_entrp">   -173.59803933 </i>
    <i name="e_0_energy">   -173.66579606 </i>
   </energy>
  </scstep>
  <scstep>
   <time name="diag">   68.75   68.75</time>
   <time name="diis">  120.39  120.39</time>
   <time name="orth">   13.65   13.65</time>
   <time name="total">  246.26  246.27</time>
   <energy>
    <i name="e_fr_energy">   -173.68962416 </i>
    <i name="e_wo_entrp">   -173.59960816 </i>
    <i name="e_0_energy">   -173.66712016 </i>
   </energy>
  </scstep>
  <scstep>
   <time name="diag">   68.37   68.37</time>
   <time name="diis">  122.59  122.59</time>
   <time name="orth">   13.69   13.69</time>
   <time name="total">  248.39  248.39</time>
   <energy>
    <i name="e_fr_energy">   -173.69153235 </i>
    <i name="e_wo_entrp">   -173.60089063 </i>
    <i name="e_0_energy">   -173.66887192 </i>
   </energy>
  </scstep>
  <scstep>
   <time name="diag">   68.43   68.43</time>
   <time name="diis">  124.99  124.99</time>
   <time name="orth">   13.70   13.70</time>
   <time name="total">  250.26  250.26</time>
   <energy>
    <i name="e_fr_energy">   -173.69390747 </i>
    <i name="e_wo_entrp">   -173.60383694 </i>
    <i name="e_0_energy">   -173.67138984 </i>
   </energy>
  </scstep>
  <scstep>
   <time name="diag">   69.02   69.02</time>
   <time name="diis">  120.02  120.02</time>
   <time name="orth">   13.78   13.78</time>
   <time name="total">  246.43  246.44</time>
   <energy>
    <i name="e_fr_energy">   -173.69515208 </i>
    <i name="e_wo_entrp">   -173.60523089 </i>
    <i name="e_0_energy">   -173.67267179 </i>
   </energy>
  </scstep>
  <scstep>
   <time name="diag">   68.25   68.25</time>
   <time name="diis">  123.73  123.73</time>
   <time name="orth">   13.56   13.56</time>
   <time name="total">  249.30  249.30</time>
   <energy>
    <i name="e_fr_energy">   -173.69731683 </i>
    <i name="e_wo_entrp">   -173.60678426 </i>
    <i name="e_0_energy">   -173.67468369 </i>
   </energy>
  </scstep>
  <scstep>
   <time name="diag">   68.21   68.21</time>
   <time name="diis">  117.87  117.87</time>
   <time name="orth">   13.70   13.70</time>
   <time name="total">  243.68  243.69</time>
   <energy>
    <i name="e_fr_energy">   -173.69806080 </i>
    <i name="e_wo_entrp">   -173.60765945 </i>
    <i name="e_0_energy">   -173.67546046 </i>
   </energy>
  </scstep>
  <scstep>
   <time name="diag">   68.31   68.32</time>
   <time name="diis">  117.51  117.52</time>
   <time name="orth">   13.93   13.93</time>
   <time name="total">  243.77  243.78</time>
   <energy>
    <i name="e_fr_energy">   -173.69929894 </i>
    <i name="e_wo_entrp">   -173.60865630 </i>
    <i name="e_0_energy">   -173.67663828 </i>
   </energy>
  </scstep>
  <scstep>
   <time name="diag">   68.48   68.48</time>
   <time name="diis">  116.37  116.37</time>
   <time name="orth">   13.68   13.68</time>
   <time name="total">  242.44  242.45</time>
   <energy>
    <i name="e_fr_energy">   -173.70021067 </i>
    <i name="e_wo_entrp">   -173.61000631 </i>
    <i name="e_0_energy">   -173.67765958 </i>
   </energy>
  </scstep>
  <scstep>
   <time name="diag">   68.26   68.26</time>
   <time name="diis">  114.80  114.80</time>
   <time name="orth">   13.75   13.75</time>
   <time name="total">  240.78  240.78</time>
   <energy>
    <i name="e_fr_energy">   -173.70052867 </i>
    <i name="e_wo_entrp">   -173.61016865 </i>
    <i name="e_0_energy">   -173.67793866 </i>
   </energy>
  </scstep>
  <scstep>
   <time name="diag">   68.21   68.21</time>
   <time name="diis">  116.19  116.19</time>
   <time name="orth">   13.87   13.87</time>
   <time name="total">  241.67  241.67</time>
   <energy>
    <i name="e_fr_energy">   -173.70118068 </i>
    <i name="e_wo_entrp">   -173.61087009 </i>
    <i name="e_0_energy">   -173.67860303 </i>
   </energy>
  </scstep>
  <scstep>
   <time name="diag">   68.01   68.01</time>
   <time name="diis">  100.83  100.84</time>
   <time name="orth">   13.77   13.77</time>
   <time name="total">  226.01  226.02</time>
   <energy>
    <i name="e_fr_energy">   -173.70140302 </i>
    <i name="e_wo_entrp">   -173.61126717 </i>
    <i name="e_0_energy">   -173.67886906 </i>
   </energy>
  </scstep>
  <scstep>
   <time name="diag">   67.54   67.54</time>
   <time name="diis">   99.54   99.54</time>
   <time name="orth">   13.45   13.45</time>
   <time name="total">  224.21  224.21</time>
   <energy>
    <i name="e_fr_energy">   -173.70195996 </i>
    <i name="e_wo_entrp">   -173.61166014 </i>
    <i name="e_0_energy">   -173.67938500 </i>
   </energy>
  </scstep>
  <scstep>
   <time name="diag">   67.55   67.55</time>
   <time name="diis">   84.94   84.94</time>
   <time name="orth">   13.25   13.25</time>
   <time name="total">  208.85  208.86</time>
   <energy>
    <i name="e_fr_energy">   -173.70219080 </i>
    <i name="e_wo_entrp">   -173.61184546 </i>
    <i name="e_0_energy">   -173.67960447 </i>
   </energy>
  </scstep>
  <scstep>
   <time name="diag">   67.23   67.23</time>
   <time name="diis">   97.81   97.81</time>
   <time name="orth">   13.79   13.79</time>
   <time name="total">  220.84  220.84</time>
   <energy>
    <i name="e_fr_energy">   -173.70262880 </i>
    <i name="e_wo_entrp">   -173.61226928 </i>
    <i name="e_0_energy">   -173.68003892 </i>
   </energy>
  </scstep>
  <scstep>
   <time name="diag">   67.18   67.18</time>
   <time name="diis">   86.36   86.36</time>
   <time name="orth">   13.41   13.41</time>
   <time name="total">  209.34  209.34</time>
   <energy>
    <i name="e_fr_energy">   -173.70288147 </i>
    <i name="e_wo_entrp">   -173.61256268 </i>
    <i name="e_0_energy">   -173.68030178 </i>
   </energy>
  </scstep>
  <scstep>
   <time name="diag">   66.48   66.48</time>
   <time name="diis">   89.21   89.21</time>
   <time name="orth">   13.26   13.26</time>
   <time name="total">  210.81  210.82</time>
   <energy>
    <i name="e_fr_energy">   -173.70314141 </i>
    <i name="e_wo_entrp">   -173.61281209 </i>
    <i name="e_0_energy">   -173.68055908 </i>
   </energy>
  </scstep>
  <scstep>
   <time name="diag">   66.50   66.50</time>
   <time name="diis">   81.45   81.45</time>
   <time name="orth">   13.87   13.87</time>
   <time name="total">  204.49  204.49</time>
   <energy>
    <i name="e_fr_energy">   -173.70330644 </i>
    <i name="e_wo_entrp">   -173.61297483 </i>
    <i name="e_0_energy">   -173.68072354 </i>
   </energy>
  </scstep>
  <scstep>
   <time name="diag">   66.70   66.70</time>
   <time name="diis">   78.16   78.16</time>
   <time name="orth">   13.52   13.52</time>
   <time name="total">  201.92  201.92</time>
   <energy>
    <i name="e_fr_energy">   -173.70342348 </i>
    <i name="e_wo_entrp">   -173.61303510 </i>
    <i name="e_0_energy">   -173.68082638 </i>
   </energy>
  </scstep>
  <scstep>
   <time name="diag">   67.11   67.11</time>
   <time name="diis">   70.24   70.24</time>
   <time name="orth">   13.25   13.25</time>
   <time name="total">  164.61  164.61</time>
   <energy>
    <i name="alphaZ">     75.25431677 </i>
    <i name="ewald"> 137690.36321391 </i>
    <i name="hartreedc">-182067.97475768 </i>
    <i name="XCdc">  -1693.42171771 </i>
    <i name="pawpsdc">  46032.74630620 </i>
    <i name="pawaedc"> -42502.04329545 </i>
    <i name="eentropy">     -0.09026888 </i>
    <i name="bandstr">  -2795.04270211 </i>
    <i name="atom">  45086.50549395 </i>
    <i name="e_fr_energy">   -173.70341101 </i>
    <i name="e_wo_entrp">   -173.61314213 </i>
    <i name="e_0_energy">   -173.68084379 </i>
   </energy>
  </scstep>
  <structure>
   <crystal>
    <varray name="basis" >
     <v>      30.00000000       0.00000000       0.00000000 </v>
     <v>       0.00000000      30.00000000       0.00000000 </v>
     <v>       0.00000000       0.00000000      30.00000000 </v>
    </varray>
    <i name="volume">  27000.00000000 </i>
    <varray name="rec_basis" >
     <v>       0.03333333       0.00000000       0.00000000 </v>
     <v>       0.00000000       0.03333333       0.00000000 </v>
     <v>       0.00000000       0.00000000       0.03333333 </v>
    </varray>
   </crystal>
   <varray name="positions" >
    <v>       0.44576020       0.32826710       0.41691983 </v>
    <v>       0.67173288       0.55423978       0.41691983 </v>
    <v>       0.55423980       0.32826710       0.41691983 </v>
    <v>       0.32826712       0.55423978       0.41691983 </v>
    <v>       0.50000000       0.38250690       0.34021317 </v>
    <v>       0.50000000       0.38250690       0.65978680 </v>
    <v>       0.50000000       0.27609440       0.50000000 </v>
    <v>       0.27609443       0.49999998       0.50000000 </v>
    <v>       0.72390557       0.49999998       0.50000000 </v>
    <v>       0.50000000       0.72390555       0.50000000 </v>
    <v>       0.61195280       0.38804720       0.34167483 </v>
    <v>       0.61195280       0.38804720       0.65832513 </v>
    <v>       0.38804722       0.61195278       0.34167483 </v>
    <v>       0.38804722       0.61195278       0.65832513 </v>
    <v>       0.38804720       0.38804720       0.34167483 </v>
    <v>       0.38804720       0.38804720       0.65832513 </v>
    <v>       0.61195278       0.61195278       0.34167483 </v>
    <v>       0.61195278       0.61195278       0.65832513 </v>
    <v>       0.44576020       0.32826710       0.58308023 </v>
    <v>       0.67173288       0.55423978       0.58308023 </v>
    <v>       0.55791699       0.44208301       0.41809300 </v>
    <v>       0.32826705       0.44576024       0.41691983 </v>
    <v>       0.55423973       0.67173293       0.41691983 </v>
    <v>       0.55423980       0.32826710       0.58308023 </v>
    <v>       0.32826712       0.55423978       0.58308023 </v>
    <v>       0.67173295       0.44576024       0.41691983 </v>
    <v>       0.44576027       0.67173293       0.41691983 </v>
    <v>       0.44208301       0.44208301       0.41809300 </v>
    <v>       0.50000000       0.38416601       0.50000000 </v>
    <v>       0.61749315       0.50000005       0.34021317 </v>
    <v>       0.61749315       0.50000005       0.65978680 </v>
    <v>       0.38250685       0.50000005       0.34021317 </v>
    <v>       0.38250685       0.50000005       0.65978680 </v>
    <v>       0.38317830       0.38317830       0.50000000 </v>
    <v>       0.61682172       0.61682172       0.50000000 </v>
    <v>       0.61682170       0.38317830       0.50000000 </v>
    <v>       0.38317828       0.61682172       0.50000000 </v>
    <v>       0.50000000       0.50000000       0.33478917 </v>
    <v>       0.50000000       0.50000000       0.66521087 </v>
    <v>       0.32826705       0.44576024       0.58308023 </v>
    <v>       0.55423973       0.67173293       0.58308023 </v>
    <v>       0.55791699       0.44208301       0.58190703 </v>
    <v>       0.44208298       0.55791702       0.41809300 </v>
    <v>       0.44208301       0.44208301       0.58190703 </v>
    <v>       0.67173295       0.44576024       0.58308023 </v>
    <v>       0.44576027       0.67173293       0.58308023 </v>
    <v>       0.55791702       0.55791702       0.41809300 </v>
    <v>       0.38416599       0.50000002       0.50000000 </v>
    <v>       0.61583401       0.50000002       0.50000000 </v>
    <v>       0.50000000       0.61749319       0.34021317 </v>
    <v>       0.50000000       0.61749319       0.65978680 </v>
    <v>       0.50000000       0.50000000       0.50000000 </v>
    <v>       0.44208298       0.55791702       0.58190703 </v>
    <v>       0.55791702       0.55791702       0.58190703 </v>
    <v>       0.50000000       0.61583404       0.50000000 </v>
    <v>       0.47664803       0.48182630       0.75883143 </v>
    <v>       0.47327770       0.47920333       0.79618810 </v>
   </varray>
  </structure>
  <varray name="forces" >
   <v>       0.70266289       1.10761675       0.29143678 </v>
   <v>      -1.10794592      -0.70319647       0.29355598 </v>
   <v>      -0.70250152       1.10778044       0.29221659 </v>
   <v>       1.10793509      -0.70245544       0.29200196 </v>
   <v>      -0.00039580       0.41126773       1.28110210 </v>
   <v>       0.00177173       0.38459701      -1.30385091 </v>
   <v>       0.00005961       1.51504053       0.00012575 </v>
   <v>       1.51541662      -0.00018709       0.00034823 </v>
   <v>      -1.51595527       0.00005102      -0.00060008 </v>
   <v>       0.00011659      -1.51664082      -0.00057830 </v>
   <v>      -0.75598037       0.75493115       1.07260786 </v>
   <v>      -0.75631250       0.75723599      -1.07283119 </v>
   <v>       0.75533691      -0.75620251       1.07303029 </v>
   <v>       0.75726706      -0.75580750      -1.07323594 </v>
   <v>       0.75574592       0.75568843       1.07292361 </v>
   <v>       0.75447047       0.75370242      -1.07604084 </v>
   <v>      -0.75610310      -0.75618188       1.07326401 </v>
   <v>      -0.75666941      -0.75683971      -1.07136676 </v>
   <v>       0.70192578       1.10630378      -0.29243642 </v>
   <v>      -1.10701869      -0.70254388      -0.29154461 </v>
   <v>       0.11251500      -0.11276875      -0.15691028 </v>
   <v>       1.10795824       0.70249311       0.29150522 </v>
   <v>      -0.70323935      -1.10824514       0.29359808 </v>
   <v>      -0.70428949       1.10845262      -0.29018626 </v>
   <v>       1.10886873      -0.70490328      -0.29032512 </v>
   <v>      -1.10652735       0.70222949       0.29228496 </v>
   <v>       0.70299100      -1.10770186       0.29221966 </v>
   <v>      -0.11282022      -0.11298306      -0.15698238 </v>
   <v>       0.00071312      -0.22574616      -0.00190890 </v>
   <v>      -0.41118313      -0.00005436       1.28060337 </v>
   <v>      -0.40341313      -0.00014950      -1.29638986 </v>
   <v>       0.41128314      -0.00047746       1.28063759 </v>
   <v>       0.38264403       0.00108577      -1.30294772 </v>
   <v>       0.82702545       0.82683072      -0.00281040 </v>
   <v>      -0.82470977      -0.82507296      -0.00672590 </v>
   <v>      -0.82395508       0.82500205      -0.00660611 </v>
   <v>       0.82598426      -0.82493536      -0.00607738 </v>
   <v>      -0.00116197      -0.00106490       1.17999993 </v>
   <v>      -0.07327150      -0.05741259      -0.67361301 </v>
   <v>       1.10678460       0.70253136      -0.29223730 </v>
   <v>      -0.70284180      -1.10743097      -0.29145077 </v>
   <v>       0.11525392      -0.10707871       0.15613651 </v>
   <v>      -0.11265111       0.11258961      -0.15689463 </v>
   <v>      -0.12145916      -0.12271720       0.14964485 </v>
   <v>      -1.10675526       0.70087496      -0.29209380 </v>
   <v>       0.70130507      -1.10736899      -0.29257112 </v>
   <v>       0.11245054       0.11234061      -0.15711629 </v>
   <v>      -0.22569171       0.00033794      -0.00216193 </v>
   <v>       0.22611954       0.00079742      -0.00002397 </v>
   <v>      -0.00009994      -0.41136147       1.28096527 </v>
   <v>       0.00028630      -0.40185080      -1.29741431 </v>
   <v>      -0.00034113      -0.00033495       0.00511351 </v>
   <v>      -0.11035598       0.11859132       0.15377504 </v>
   <v>       0.09416045       0.09296820       0.17071790 </v>
   <v>       0.00109330       0.22613295      -0.00035057 </v>
   <v>       0.34758624       0.27445476      -2.95109047 </v>
   <v>      -0.23408193      -0.17221434       2.53755846 </v>
  </varray>
  <varray name="stress" >
   <v>      -6.75014927      -0.00361969       0.00703650 </v>
   <v>      -0.00361969      -6.74875038       0.00549847 </v>
   <v>       0.00703654       0.00549850      -6.66491177 </v>
  </varray>
  <energy>
   <i name="e_fr_energy">   -173.70341101 </i>
   <i name="e_wo_entrp">   -173.68084379 </i>
   <i name="e_0_energy">     -0.09026888 </i>
  </energy>
  <time name="totalsc">18549.0918549.74</time>
  <eigenvalues>
   <array>
    <dimension dim="1">band</dimension>
    <dimension dim="2">kpoint</dimension>
    <dimension dim="3">spin</dimension>
    <field>eigene</field>
    <field>occ</field>
    <set>
     <set comment="spin 1">
      <set comment="kpoint 1">
       <r>  -29.2293    1.0000 </r>
       <r>  -13.7415    1.0000 </r>
       <r>  -11.5293    1.0000 </r>
       <r>  -11.5287    1.0000 </r>
       <r>   -9.0523    1.0000 </r>
       <r>   -6.6193    1.0000 </r>
       <r>   -6.1011    1.0000 </r>
       <r>   -6.1009    1.0000 </r>
       <r>   -6.0952    1.0000 </r>
       <r>   -5.7866    1.0000 </r>
       <r>   -5.7864    1.0000 </r>
       <r>   -5.7856    1.0000 </r>
       <r>   -5.7190    1.0000 </r>
       <r>   -5.6669    1.0000 </r>
       <r>   -5.6585    1.0000 </r>
       <r>   -5.6584    1.0000 </r>
       <r>   -5.6583    1.0000 </r>
       <r>   -5.5956    1.0000 </r>
       <r>   -5.5945    1.0000 </r>
       <r>   -5.5817    1.0000 </r>
       <r>   -5.5698    1.0000 </r>
       <r>   -5.5698    1.0000 </r>
       <r>   -5.5693    1.0000 </r>
       <r>   -5.5244    1.0000 </r>
       <r>   -5.5226    1.0000 </r>
       <r>   -5.5215    1.0000 </r>
       <r>   -5.5206    1.0000 </r>
       <r>   -5.4943    1.0000 </r>
       <r>   -5.4940    1.0000 </r>
       <r>   -5.4931    1.0000 </r>
       <r>   -5.4874    1.0000 </r>
       <r>   -5.4874    1.0000 </r>
       <r>   -5.4872    1.0000 </r>
       <r>   -5.4860    1.0000 </r>
       <r>   -5.4858    1.0000 </r>
       <r>   -5.4517    1.0000 </r>
       <r>   -5.4516    1.0000 </r>
       <r>   -5.4427    1.0000 </r>
       <r>   -5.4424    1.0000 </r>
       <r>   -5.4415    1.0000 </r>
       <r>   -5.4408    1.0000 </r>
       <r>   -5.4407    1.0000 </r>
       <r>   -5.4406    1.0000 </r>
       <r>   -5.4033    1.0000 </r>
       <r>   -5.4030    1.0000 </r>
       <r>   -5.4027    1.0000 </r>
       <r>   -5.4019    1.0000 </r>
       <r>   -5.4004    1.0000 </r>
       <r>   -5.3957    1.0000 </r>
       <r>   -5.3953    1.0000 </r>
       <r>   -5.3948    1.0000 </r>
       <r>   -5.3807    1.0000 </r>
       <r>   -5.3793    1.0000 </r>
       <r>   -5.3792    1.0000 </r>
       <r>   -5.3642    1.0000 </r>
       <r>   -5.3022    1.0000 </r>
       <r>   -5.3007    1.0000 </r>
       <r>   -5.3003    1.0000 </r>
       <r>   -5.3000    1.0000 </r>
       <r>   -5.2899    1.0000 </r>
       <r>   -5.2897    1.0000 </r>
       <r>   -5.2896    1.0000 </r>
       <r>   -5.2750    1.0000 </r>
       <r>   -5.2744    1.0000 </r>
       <r>   -5.2729    1.0000 </r>
       <r>   -5.2608    1.0000 </r>
       <r>   -5.2598    1.0000 </r>
       <r>   -5.1891    1.0000 </r>
       <r>   -5.1797    1.0000 </r>
       <r>   -5.1785    1.0000 </r>
       <r>   -5.1776    1.0000 </r>
       <r>   -5.1541    1.0000 </r>
       <r>   -5.1537    1.0000 </r>
       <r>   -5.1531    1.0000 </r>
       <r>   -5.1515    1.0000 </r>
       <r>   -5.1487    1.0000 </r>
       <r>   -5.1358    1.0000 </r>
       <r>   -5.1355    1.0000 </r>
       <r>   -5.1349    1.0000 </r>
       <r>   -5.1207    1.0000 </r>
       <r>   -5.0985    1.0000 </r>
       <r>   -5.0973    1.0000 </r>
       <r>   -5.0972    1.0000 </r>
       <r>   -5.0861    1.0000 </r>
       <r>   -5.0766    1.0000 </r>
       <r>   -5.0762    1.0000 </r>
       <r>   -5.0760    1.0000 </r>
       <r>   -5.0332    1.0000 </r>
       <r>   -5.0321    1.0000 </r>
       <r>   -5.0285    1.0000 </r>
       <r>   -5.0282    1.0000 </r>
       <r>   -5.0280    1.0000 </r>
       <r>   -5.0238    1.0000 </r>
       <r>   -5.0218    1.0000 </r>
       <r>   -5.0217    1.0000 </r>
       <r>   -5.0070    1.0000 </r>
       <r>   -5.0055    1.0000 </r>
       <r>   -5.0016    1.0000 </r>
       <r>   -4.9915    1.0000 </r>
       <r>   -4.9909    1.0000 </r>
       <r>   -4.9785    1.0000 </r>
       <r>   -4.9785    1.0000 </r>
       <r>   -4.9782    1.0000 </r>
       <r>   -4.9656    1.0000 </r>
       <r>   -4.9651    1.0000 </r>
       <r>   -4.9644    1.0000 </r>
       <r>   -4.9531    1.0000 </r>
       <r>   -4.9531    1.0000 </r>
       <r>   -4.9529    1.0000 </r>
       <r>   -4.9428    1.0000 </r>
       <r>   -4.9419    1.0000 </r>
       <r>   -4.9331    1.0000 </r>
       <r>   -4.9321    1.0000 </r>
       <r>   -4.9272    1.0000 </r>
       <r>   -4.9259    1.0000 </r>
       <r>   -4.9258    1.0000 </r>
       <r>   -4.9112    1.0000 </r>
       <r>   -4.8911    1.0000 </r>
       <r>   -4.8907    1.0000 </r>
       <r>   -4.8906    1.0000 </r>
       <r>   -4.8777    1.0000 </r>
       <r>   -4.8757    1.0000 </r>
       <r>   -4.8755    1.0000 </r>
       <r>   -4.8749    1.0000 </r>
       <r>   -4.8744    1.0000 </r>
       <r>   -4.8739    1.0000 </r>
       <r>   -4.8201    1.0000 </r>
       <r>   -4.8166    1.0000 </r>
       <r>   -4.8160    1.0000 </r>
       <r>   -4.8152    1.0000 </r>
       <r>   -4.8149    1.0000 </r>
       <r>   -4.8141    1.0000 </r>
       <r>   -4.8039    1.0000 </r>
       <r>   -4.8038    1.0000 </r>
       <r>   -4.8032    1.0000 </r>
       <r>   -4.7676    0.9999 </r>
       <r>   -4.7667    0.9999 </r>
       <r>   -4.7646    0.9999 </r>
       <r>   -4.7645    0.9999 </r>
       <r>   -4.7446    0.9998 </r>
       <r>   -4.7420    0.9998 </r>
       <r>   -4.7357    0.9998 </r>
       <r>   -4.7104    0.9996 </r>
       <r>   -4.7104    0.9996 </r>
       <r>   -4.7103    0.9996 </r>
       <r>   -4.6989    0.9995 </r>
       <r>   -4.6973    0.9995 </r>
       <r>   -4.6797    0.9993 </r>
       <r>   -4.6641    0.9990 </r>
       <r>   -4.6628    0.9990 </r>
       <r>   -4.6613    0.9990 </r>
       <r>   -4.6560    0.9988 </r>
       <r>   -4.6471    0.9986 </r>
       <r>   -4.6467    0.9986 </r>
       <r>   -4.6462    0.9986 </r>
       <r>   -4.6459    0.9986 </r>
       <r>   -4.6454    0.9986 </r>
       <r>   -4.6454    0.9986 </r>
       <r>   -4.6281    0.9981 </r>
       <r>   -4.6243    0.9980 </r>
       <r>   -4.6240    0.9980 </r>
       <r>   -4.6218    0.9979 </r>
       <r>   -4.6200    0.9979 </r>
       <r>   -4.6196    0.9979 </r>
       <r>   -4.6188    0.9979 </r>
       <r>   -4.6187    0.9978 </r>
       <r>   -4.6156    0.9977 </r>
       <r>   -4.6143    0.9977 </r>
       <r>   -4.6030    0.9973 </r>
       <r>   -4.6013    0.9973 </r>
       <r>   -4.5747    0.9963 </r>
       <r>   -4.5720    0.9962 </r>
       <r>   -4.5705    0.9961 </r>
       <r>   -4.5704    0.9961 </r>
       <r>   -4.5679    0.9960 </r>
       <r>   -4.5669    0.9960 </r>
       <r>   -4.5663    0.9960 </r>
       <r>   -4.5622    0.9958 </r>
       <r>   -4.5543    0.9956 </r>
       <r>   -4.5529    0.9955 </r>
       <r>   -4.5467    0.9954 </r>
       <r>   -4.5254    0.9951 </r>
       <r>   -4.5251    0.9951 </r>
       <r>   -4.5250    0.9951 </r>
       <r>   -4.5247    0.9951 </r>
       <r>   -4.5247    0.9951 </r>
       <r>   -4.5243    0.9951 </r>
       <r>   -4.5228    0.9951 </r>
       <r>   -4.5215    0.9951 </r>
       <r>   -4.5213    0.9951 </r>
       <r>   -4.4796    0.9973 </r>
       <r>   -4.4780    0.9975 </r>
       <r>   -4.4773    0.9976 </r>
       <r>   -4.4771    0.9976 </r>
       <r>   -4.4764    0.9977 </r>
       <r>   -4.4642    0.9995 </r>
       <r>   -4.4538    1.0014 </r>
       <r>   -4.4536    1.0015 </r>
       <r>   -4.4518    1.0019 </r>
       <r>   -4.4413    1.0045 </r>
       <r>   -4.4409    1.0046 </r>
       <r>   -4.4311    1.0075 </r>
       <r>   -4.4295    1.0080 </r>
       <r>   -4.4294    1.0080 </r>
       <r>   -4.4205    1.0111 </r>
       <r>   -4.4205    1.0111 </r>
       <r>   -4.4203    1.0112 </r>
       <r>   -4.4163    1.0127 </r>
       <r>   -4.4156    1.0130 </r>
       <r>   -4.4128    1.0140 </r>
       <r>   -4.3966    1.0209 </r>
       <r>   -4.3822    1.0277 </r>
       <r>   -4.3819    1.0278 </r>
       <r>   -4.3816    1.0279 </r>
       <r>   -4.3813    1.0281 </r>
       <r>   -4.3780    1.0297 </r>
       <r>   -4.3742    1.0315 </r>
       <r>   -4.3737    1.0317 </r>
       <r>   -4.3732    1.0320 </r>
       <r>   -4.3421    1.0457 </r>
       <r>   -4.3409    1.0461 </r>
       <r>   -4.3355    1.0478 </r>
       <r>   -4.3115    1.0516 </r>
       <r>   -4.3112    1.0516 </r>
       <r>   -4.3106    1.0516 </r>
       <r>   -4.3104    1.0516 </r>
       <r>   -4.3091    1.0515 </r>
       <r>   -4.3085    1.0515 </r>
       <r>   -4.3076    1.0514 </r>
       <r>   -4.3063    1.0513 </r>
       <r>   -4.3025    1.0507 </r>
       <r>   -4.3002    1.0502 </r>
       <r>   -4.2974    1.0494 </r>
       <r>   -4.2965    1.0491 </r>
       <r>   -4.2941    1.0483 </r>
       <r>   -4.2940    1.0483 </r>
       <r>   -4.2939    1.0482 </r>
       <r>   -4.2907    1.0469 </r>
       <r>   -4.2896    1.0464 </r>
       <r>   -4.2895    1.0463 </r>
       <r>   -4.2746    1.0360 </r>
       <r>   -4.2726    1.0342 </r>
       <r>   -4.2596    1.0191 </r>
       <r>   -4.2590    1.0183 </r>
       <r>   -4.2564    1.0145 </r>
       <r>   -4.2562    1.0143 </r>
       <r>   -4.2560    1.0139 </r>
       <r>   -4.2557    1.0134 </r>
       <r>   -4.2502    1.0045 </r>
       <r>   -4.2393    0.9837 </r>
       <r>   -4.2352    0.9748 </r>
       <r>   -4.2286    0.9589 </r>
       <r>   -4.2267    0.9541 </r>
       <r>   -4.2260    0.9525 </r>
       <r>   -4.2217    0.9407 </r>
       <r>   -4.2207    0.9380 </r>
       <r>   -4.2205    0.9373 </r>
       <r>   -4.2163    0.9251 </r>
       <r>   -4.2156    0.9230 </r>
       <r>   -4.2155    0.9228 </r>
       <r>   -4.2099    0.9052 </r>
       <r>   -4.2090    0.9022 </r>
       <r>   -4.2089    0.9020 </r>
       <r>   -4.2088    0.9014 </r>
       <r>   -4.2055    0.8904 </r>
       <r>   -4.1965    0.8582 </r>
       <r>   -4.1938    0.8480 </r>
       <r>   -4.1901    0.8335 </r>
       <r>   -4.1897    0.8322 </r>
       <r>   -4.1896    0.8315 </r>
       <r>   -4.1873    0.8222 </r>
       <r>   -4.1868    0.8205 </r>
       <r>   -4.1641    0.7200 </r>
       <r>   -4.1633    0.7163 </r>
       <r>   -4.1630    0.7148 </r>
       <r>   -4.1514    0.6579 </r>
       <r>   -4.1510    0.6562 </r>
       <r>   -4.1484    0.6427 </r>
       <r>   -4.1414    0.6071 </r>
       <r>   -4.1411    0.6056 </r>
       <r>   -4.1408    0.6037 </r>
       <r>   -4.1270    0.5319 </r>
       <r>   -4.1001    0.3903 </r>
       <r>   -4.0999    0.3895 </r>
       <r>   -4.0994    0.3867 </r>
       <r>   -4.0969    0.3739 </r>
       <r>   -4.0837    0.3081 </r>
       <r>   -4.0824    0.3016 </r>
       <r>   -4.0815    0.2971 </r>
       <r>   -3.9427   -0.0500 </r>
       <r>   -3.8698   -0.0325 </r>
       <r>   -3.7908   -0.0020 </r>
       <r>   -3.7902   -0.0019 </r>
       <r>   -3.7885   -0.0015 </r>
       <r>   -3.4634    0.0001 </r>
       <r>   -3.4630    0.0001 </r>
       <r>   -3.4292    0.0000 </r>
       <r>   -3.0271    0.0000 </r>
       <r>   -3.0267    0.0000 </r>
       <r>   -3.0026    0.0000 </r>
       <r>   -2.9868    0.0000 </r>
       <r>   -2.9856    0.0000 </r>
       <r>   -2.9849    0.0000 </r>
       <r>   -2.9032    0.0000 </r>
       <r>   -2.8748    0.0000 </r>
       <r>   -2.5231    0.0000 </r>
       <r>   -2.5144    0.0000 </r>
       <r>   -2.4910    0.0000 </r>
       <r>   -2.2849    0.0000 </r>
       <r>   -2.0926    0.0000 </r>
       <r>   -2.0920    0.0000 </r>
       <r>   -2.0909    0.0000 </r>
       <r>   -1.9291    0.0000 </r>
       <r>   -1.9186    0.0000 </r>
       <r>   -1.8908    0.0000 </r>
       <r>   -1.8598    0.0000 </r>
       <r>   -1.8222    0.0000 </r>
       <r>   -1.7579    0.0000 </r>
       <r>   -1.7422    0.0000 </r>
       <r>   -1.7056    0.0000 </r>
       <r>   -1.6170    0.0000 </r>
       <r>   -1.5434    0.0000 </r>
       <r>   -1.5226    0.0000 </r>
       <r>   -1.5146    0.0000 </r>
       <r>   -1.4898    0.0000 </r>
       <r>   -1.1664    0.0000 </r>
       <r>   -1.1499    0.0000 </r>
       <r>   -0.9857    0.0000 </r>
       <r>   -0.9641    0.0000 </r>
       <r>   -0.9606    0.0000 </r>
       <r>   -0.9421    0.0000 </r>
       <r>   -0.9125    0.0000 </r>
       <r>   -0.8989    0.0000 </r>
       <r>   -0.7960    0.0000 </r>
       <r>   -0.7706    0.0000 </r>
       <r>   -0.5948    0.0000 </r>
      </set>
     </set>
    </set>
   </array>
  </eigenvalues>
  <separator name="orbital magnetization" >
   <v name="MAGDIPOLOUT">      0.00000000      0.00000000      0.00000000</v>
  </separator>
  <dos>
   <i name="efermi">     -4.12099942 </i>
   <total>
    <array>
     <dimension dim="1">gridpoints</dimension>
     <dimension dim="2">spin</dimension>
     <field>energy</field>
     <field>total</field>
     <field>integrated</field>
     <set>
      <set comment="spin 1">
       <r>   -31.2293     0.0000     0.0000 </r>
       <r>   -31.1205     0.0000     0.0000 </r>
       <r>   -31.0118     0.0000     0.0000 </r>
       <r>   -30.9030     0.0000     0.0000 </r>
       <r>   -30.7942     0.0000     0.0000 </r>
       <r>   -30.6854     0.0000     0.0000 </r>
       <r>   -30.5766     0.0000     0.0000 </r>
       <r>   -30.4678     0.0000     0.0000 </r>
       <r>   -30.3591     0.0000     0.0000 </r>
       <r>   -30.2503     0.0000     0.0000 </r>
       <r>   -30.1415     0.0000     0.0000 </r>
       <r>   -30.0327     0.0000     0.0000 </r>
       <r>   -29.9239     0.0004     0.0000 </r>
       <r>   -29.8152     0.0071     0.0008 </r>
       <r>   -29.7064     0.0451     0.0057 </r>
       <r>   -29.5976     0.0145     0.0073 </r>
       <r>   -29.4888    -0.5908    -0.0570 </r>
       <r>   -29.3800    -0.0892    -0.0667 </r>
       <r>   -29.2712     5.8646     0.5713 </r>
       <r>   -29.1625     9.9101     1.6493 </r>
       <r>   -29.0537     4.1279     2.0984 </r>
       <r>   -28.9449    -0.5904     2.0341 </r>
       <r>   -28.8361    -0.4028     1.9903 </r>
       <r>   -28.7273     0.0519     1.9960 </r>
       <r>   -28.6186     0.0328     1.9995 </r>
       <r>   -28.5098     0.0040     2.0000 </r>
       <r>   -28.4010     0.0002     2.0000 </r>
       <r>   -28.2922     0.0000     2.0000 </r>
       <r>   -28.1834     0.0000     2.0000 </r>
       <r>   -28.0746     0.0000     2.0000 </r>
       <r>   -27.9659     0.0000     2.0000 </r>
       <r>   -27.8571     0.0000     2.0000 </r>
       <r>   -27.7483     0.0000     2.0000 </r>
       <r>   -27.6395     0.0000     2.0000 </r>
       <r>   -27.5307     0.0000     2.0000 </r>
       <r>   -27.4220     0.0000     2.0000 </r>
       <r>   -27.3132     0.0000     2.0000 </r>
       <r>   -27.2044     0.0000     2.0000 </r>
       <r>   -27.0956     0.0000     2.0000 </r>
       <r>   -26.9868     0.0000     2.0000 </r>
       <r>   -26.8780     0.0000     2.0000 </r>
       <r>   -26.7693     0.0000     2.0000 </r>
       <r>   -26.6605     0.0000     2.0000 </r>
       <r>   -26.5517     0.0000     2.0000 </r>
       <r>   -26.4429     0.0000     2.0000 </r>
       <r>   -26.3341     0.0000     2.0000 </r>
       <r>   -26.2254     0.0000     2.0000 </r>
       <r>   -26.1166     0.0000     2.0000 </r>
       <r>   -26.0078     0.0000     2.0000 </r>
       <r>   -25.8990     0.0000     2.0000 </r>
       <r>   -25.7902     0.0000     2.0000 </r>
       <r>   -25.6814     0.0000     2.0000 </r>
       <r>   -25.5727     0.0000     2.0000 </r>
       <r>   -25.4639     0.0000     2.0000 </r>
       <r>   -25.3551     0.0000     2.0000 </r>
       <r>   -25.2463     0.0000     2.0000 </r>
       <r>   -25.1375     0.0000     2.0000 </r>
       <r>   -25.0288     0.0000     2.0000 </r>
       <r>   -24.9200     0.0000     2.0000 </r>
       <r>   -24.8112     0.0000     2.0000 </r>
       <r>   -24.7024     0.0000     2.0000 </r>
       <r>   -24.5936     0.0000     2.0000 </r>
       <r>   -24.4848     0.0000     2.0000 </r>
       <r>   -24.3761     0.0000     2.0000 </r>
       <r>   -24.2673     0.0000     2.0000 </r>
       <r>   -24.1585     0.0000     2.0000 </r>
       <r>   -24.0497     0.0000     2.0000 </r>
       <r>   -23.9409     0.0000     2.0000 </r>
       <r>   -23.8322     0.0000     2.0000 </r>
       <r>   -23.7234     0.0000     2.0000 </r>
       <r>   -23.6146     0.0000     2.0000 </r>
       <r>   -23.5058     0.0000     2.0000 </r>
       <r>   -23.3970     0.0000     2.0000 </r>
       <r>   -23.2882     0.0000     2.0000 </r>
       <r>   -23.1795     0.0000     2.0000 </r>
       <r>   -23.0707     0.0000     2.0000 </r>
       <r>   -22.9619     0.0000     2.0000 </r>
       <r>   -22.8531     0.0000     2.0000 </r>
       <r>   -22.7443     0.0000     2.0000 </r>
       <r>   -22.6356     0.0000     2.0000 </r>
       <r>   -22.5268     0.0000     2.0000 </r>
       <r>   -22.4180     0.0000     2.0000 </r>
       <r>   -22.3092     0.0000     2.0000 </r>
       <r>   -22.2004     0.0000     2.0000 </r>
       <r>   -22.0916     0.0000     2.0000 </r>
       <r>   -21.9829     0.0000     2.0000 </r>
       <r>   -21.8741     0.0000     2.0000 </r>
       <r>   -21.7653     0.0000     2.0000 </r>
       <r>   -21.6565     0.0000     2.0000 </r>
       <r>   -21.5477     0.0000     2.0000 </r>
       <r>   -21.4390     0.0000     2.0000 </r>
       <r>   -21.3302     0.0000     2.0000 </r>
       <r>   -21.2214     0.0000     2.0000 </r>
       <r>   -21.1126     0.0000     2.0000 </r>
       <r>   -21.0038     0.0000     2.0000 </r>
       <r>   -20.8950     0.0000     2.0000 </r>
       <r>   -20.7863     0.0000     2.0000 </r>
       <r>   -20.6775     0.0000     2.0000 </r>
       <r>   -20.5687     0.0000     2.0000 </r>
       <r>   -20.4599     0.0000     2.0000 </r>
       <r>   -20.3511     0.0000     2.0000 </r>
       <r>   -20.2424     0.0000     2.0000 </r>
       <r>   -20.1336     0.0000     2.0000 </r>
       <r>   -20.0248     0.0000     2.0000 </r>
       <r>   -19.9160     0.0000     2.0000 </r>
       <r>   -19.8072     0.0000     2.0000 </r>
       <r>   -19.6984     0.0000     2.0000 </r>
       <r>   -19.5897     0.0000     2.0000 </r>
       <r>   -19.4809     0.0000     2.0000 </r>
       <r>   -19.3721     0.0000     2.0000 </r>
       <r>   -19.2633     0.0000     2.0000 </r>
       <r>   -19.1545     0.0000     2.0000 </r>
       <r>   -19.0458     0.0000     2.0000 </r>
       <r>   -18.9370     0.0000     2.0000 </r>
       <r>   -18.8282     0.0000     2.0000 </r>
       <r>   -18.7194     0.0000     2.0000 </r>
       <r>   -18.6106     0.0000     2.0000 </r>
       <r>   -18.5018     0.0000     2.0000 </r>
       <r>   -18.3931     0.0000     2.0000 </r>
       <r>   -18.2843     0.0000     2.0000 </r>
       <r>   -18.1755     0.0000     2.0000 </r>
       <r>   -18.0667     0.0000     2.0000 </r>
       <r>   -17.9579     0.0000     2.0000 </r>
       <r>   -17.8492     0.0000     2.0000 </r>
       <r>   -17.7404     0.0000     2.0000 </r>
       <r>   -17.6316     0.0000     2.0000 </r>
       <r>   -17.5228     0.0000     2.0000 </r>
       <r>   -17.4140     0.0000     2.0000 </r>
       <r>   -17.3052     0.0000     2.0000 </r>
       <r>   -17.1965     0.0000     2.0000 </r>
       <r>   -17.0877     0.0000     2.0000 </r>
       <r>   -16.9789     0.0000     2.0000 </r>
       <r>   -16.8701     0.0000     2.0000 </r>
       <r>   -16.7613     0.0000     2.0000 </r>
       <r>   -16.6526     0.0000     2.0000 </r>
       <r>   -16.5438     0.0000     2.0000 </r>
       <r>   -16.4350     0.0000     2.0000 </r>
       <r>   -16.3262     0.0000     2.0000 </r>
       <r>   -16.2174     0.0000     2.0000 </r>
       <r>   -16.1086     0.0000     2.0000 </r>
       <r>   -15.9999     0.0000     2.0000 </r>
       <r>   -15.8911     0.0000     2.0000 </r>
       <r>   -15.7823     0.0000     2.0000 </r>
       <r>   -15.6735     0.0000     2.0000 </r>
       <r>   -15.5647     0.0000     2.0000 </r>
       <r>   -15.4560     0.0000     2.0000 </r>
       <r>   -15.3472     0.0000     2.0000 </r>
       <r>   -15.2384     0.0000     2.0000 </r>
       <r>   -15.1296     0.0000     2.0000 </r>
       <r>   -15.0208     0.0000     2.0000 </r>
       <r>   -14.9120     0.0000     2.0000 </r>
       <r>   -14.8033     0.0000     2.0000 </r>
       <r>   -14.6945     0.0000     2.0000 </r>
       <r>   -14.5857     0.0000     2.0000 </r>
       <r>   -14.4769     0.0001     2.0000 </r>
       <r>   -14.3681     0.0028     2.0003 </r>
       <r>   -14.2594     0.0258     2.0031 </r>
       <r>   -14.1506     0.0617     2.0098 </r>
       <r>   -14.0418    -0.2892     1.9784 </r>
       <r>   -13.9330    -0.7503     1.8968 </r>
       <r>   -13.8242     3.0736     2.2311 </r>
       <r>   -13.7154     9.5672     3.2718 </r>
       <r>   -13.6067     6.9441     4.0272 </r>
       <r>   -13.4979     0.4133     4.0722 </r>
       <r>   -13.3891    -0.6994     3.9961 </r>
       <r>   -13.2803    -0.0278     3.9931 </r>
       <r>   -13.1715     0.0529     3.9988 </r>
       <r>   -13.0628     0.0099     3.9999 </r>
       <r>   -12.9540     0.0007     4.0000 </r>
       <r>   -12.8452     0.0000     4.0000 </r>
       <r>   -12.7364     0.0000     4.0000 </r>
       <r>   -12.6276     0.0000     4.0000 </r>
       <r>   -12.5188     0.0000     4.0000 </r>
       <r>   -12.4101     0.0000     4.0000 </r>
       <r>   -12.3013     0.0001     4.0000 </r>
       <r>   -12.1925     0.0021     4.0002 </r>
       <r>   -12.0837     0.0269     4.0032 </r>
       <r>   -11.9749     0.1186     4.0161 </r>
       <r>   -11.8662    -0.1687     3.9977 </r>
       <r>   -11.7574    -1.5552     3.8285 </r>
       <r>   -11.6486     2.0759     4.0544 </r>
       <r>   -11.5398    15.7949     5.7726 </r>
       <r>   -11.4310    18.0150     7.7323 </r>
       <r>   -11.3222     4.2953     8.1995 </r>
       <r>   -11.2135    -1.6199     8.0233 </r>
       <r>   -11.1047    -0.3859     7.9813 </r>
       <r>   -10.9959     0.1279     7.9952 </r>
       <r>   -10.8871     0.0400     7.9996 </r>
       <r>   -10.7783     0.0037     8.0000 </r>
       <r>   -10.6696     0.0002     8.0000 </r>
       <r>   -10.5608     0.0000     8.0000 </r>
       <r>   -10.4520     0.0000     8.0000 </r>
       <r>   -10.3432     0.0000     8.0000 </r>
       <r>   -10.2344     0.0000     8.0000 </r>
       <r>   -10.1256     0.0000     8.0000 </r>
       <r>   -10.0169     0.0000     8.0000 </r>
       <r>    -9.9081     0.0000     8.0000 </r>
       <r>    -9.7993     0.0001     8.0000 </r>
       <r>    -9.6905     0.0021     8.0002 </r>
       <r>    -9.5817     0.0213     8.0026 </r>
       <r>    -9.4730     0.0639     8.0095 </r>
       <r>    -9.3642    -0.2148     7.9861 </r>
       <r>    -9.2554    -0.8029     7.8988 </r>
       <r>    -9.1466     2.3616     8.1557 </r>
       <r>    -9.0378     9.1617     9.1523 </r>
       <r>    -8.9290     7.6777     9.9875 </r>
       <r>    -8.8203     0.8745    10.0826 </r>
       <r>    -8.7115    -0.7620     9.9998 </r>
       <r>    -8.6027    -0.0692     9.9922 </r>
       <r>    -8.4939     0.0579     9.9985 </r>
       <r>    -8.3851     0.0125     9.9999 </r>
       <r>    -8.2764     0.0010    10.0000 </r>
       <r>    -8.1676     0.0000    10.0000 </r>
       <r>    -8.0588     0.0000    10.0000 </r>
       <r>    -7.9500     0.0000    10.0000 </r>
       <r>    -7.8412     0.0000    10.0000 </r>
       <r>    -7.7324     0.0000    10.0000 </r>
       <r>    -7.6237     0.0000    10.0000 </r>
       <r>    -7.5149     0.0000    10.0000 </r>
       <r>    -7.4061     0.0000    10.0000 </r>
       <r>    -7.2973     0.0007    10.0001 </r>
       <r>    -7.1885     0.0101    10.0012 </r>
       <r>    -7.0798     0.0532    10.0070 </r>
       <r>    -6.9710    -0.0299    10.0037 </r>
       <r>    -6.8622    -0.7033     9.9272 </r>
       <r>    -6.7534     0.4417     9.9753 </r>
       <r>    -6.6446     7.0359    10.7406 </r>
       <r>    -6.5358     9.7336    11.7995 </r>
       <r>    -6.4271     2.6577    12.0886 </r>
       <r>    -6.3183    -3.0948    11.7519 </r>
       <r>    -6.2095     4.4642    12.2375 </r>
       <r>    -6.1007    25.1921    14.9780 </r>
       <r>    -5.9919    23.4032    17.5238 </r>
       <r>    -5.8832     7.7650    18.3685 </r>
       <r>    -5.7744    24.7151    21.0571 </r>
       <r>    -5.6656    67.9182    28.4453 </r>
       <r>    -5.5568   159.6473    45.8121 </r>
       <r>    -5.4480   283.1830    76.6172 </r>
       <r>    -5.3392   296.3806   108.8581 </r>
       <r>    -5.2305   217.3681   132.5038 </r>
       <r>    -5.1217   221.3679   156.5846 </r>
       <r>    -5.0129   320.7806   191.4797 </r>
       <r>    -4.9041   368.6502   231.5821 </r>
       <r>    -4.7953   309.5586   265.2565 </r>
       <r>    -4.6865   309.6289   298.9385 </r>
       <r>    -4.5778   404.5257   342.9435 </r>
       <r>    -4.4690   426.4220   389.3305 </r>
       <r>    -4.3602   439.7999   437.1727 </r>
       <r>    -4.2514   546.1093   496.5795 </r>
       <r>    -4.1426   510.9319   552.1596 </r>
       <r>    -4.0339   237.4033   577.9848 </r>
       <r>    -3.9251    32.8737   581.5609 </r>
       <r>    -3.8163    19.1634   583.6455 </r>
       <r>    -3.7075    30.9539   587.0127 </r>
       <r>    -3.5987    10.3945   588.1435 </r>
       <r>    -3.4899    16.3087   589.9175 </r>
       <r>    -3.3812    28.6439   593.0335 </r>
       <r>    -3.2724     8.9418   594.0062 </r>
       <r>    -3.1636    -4.1010   593.5601 </r>
       <r>    -3.0548    28.8830   596.7020 </r>
       <r>    -2.9460    68.8313   604.1896 </r>
       <r>    -2.8373    48.7508   609.4928 </r>
       <r>    -2.7285     6.1003   610.1564 </r>
       <r>    -2.6197     1.1408   610.2805 </r>
       <r>    -2.5109    23.6558   612.8538 </r>
       <r>    -2.4021    26.3972   615.7254 </r>
       <r>    -2.2933    11.0476   616.9272 </r>
       <r>    -2.1846    12.4760   618.2843 </r>
       <r>    -2.0758    26.7236   621.1914 </r>
       <r>    -1.9670    36.8990   625.2053 </r>
       <r>    -1.8582    48.7337   630.5066 </r>
       <r>    -1.7494    51.2847   636.0855 </r>
       <r>    -1.6407    42.0479   640.6595 </r>
       <r>    -1.5319    44.5466   645.5054 </r>
       <r>    -1.4231    35.5575   649.3734 </r>
       <r>    -1.3143     8.1147   650.2561 </r>
       <r>    -1.2055     4.7290   650.7706 </r>
       <r>    -1.0967    19.3434   652.8748 </r>
       <r>    -0.9880    41.9114   657.4340 </r>
       <r>    -0.8792    60.1115   663.9730 </r>
       <r>    -0.7704    42.5715   668.6040 </r>
       <r>    -0.6616    17.6435   670.5233 </r>
       <r>    -0.5528     9.4208   671.5481 </r>
       <r>    -0.4441     4.5434   672.0424 </r>
       <r>    -0.3353    -0.0431   672.0377 </r>
       <r>    -0.2265    -0.4441   671.9894 </r>
       <r>    -0.1177     0.0429   671.9940 </r>
       <r>    -0.0089     0.0472   671.9992 </r>
       <r>     0.0999     0.0072   672.0000 </r>
       <r>     0.2086     0.0004   672.0000 </r>
       <r>     0.3174     0.0000   672.0000 </r>
       <r>     0.4262     0.0000   672.0000 </r>
       <r>     0.5350     0.0000   672.0000 </r>
       <r>     0.6438     0.0000   672.0000 </r>
       <r>     0.7525     0.0000   672.0000 </r>
       <r>     0.8613     0.0000   672.0000 </r>
       <r>     0.9701     0.0000   672.0000 </r>
       <r>     1.0789     0.0000   672.0000 </r>
       <r>     1.1877     0.0000   672.0000 </r>
       <r>     1.2965     0.0000   672.0000 </r>
       <r>     1.4052     0.0000   672.0000 </r>
      </set>
     </set>
    </array>
   </total>
  </dos>
 </calculation>
 <structure name="finalpos" >
  <crystal>
   <varray name="basis" >
    <v>      30.00000000       0.00000000       0.00000000 </v>
    <v>       0.00000000      30.00000000       0.00000000 </v>
    <v>       0.00000000       0.00000000      30.00000000 </v>
   </varray>
   <i name="volume">  27000.00000000 </i>
   <varray name="rec_basis" >
    <v>       0.03333333       0.00000000       0.00000000 </v>
    <v>       0.00000000       0.03333333       0.00000000 </v>
    <v>       0.00000000       0.00000000       0.03333333 </v>
   </varray>
  </crystal>
  <varray name="positions" >
   <v>       0.44576020       0.32826710       0.41691983 </v>
   <v>       0.67173288       0.55423978       0.41691983 </v>
   <v>       0.55423980       0.32826710       0.41691983 </v>
   <v>       0.32826712       0.55423978       0.41691983 </v>
   <v>       0.50000000       0.38250690       0.34021317 </v>
   <v>       0.50000000       0.38250690       0.65978680 </v>
   <v>       0.50000000       0.27609440       0.50000000 </v>
   <v>       0.27609443       0.49999998       0.50000000 </v>
   <v>       0.72390557       0.49999998       0.50000000 </v>
   <v>       0.50000000       0.72390555       0.50000000 </v>
   <v>       0.61195280       0.38804720       0.34167483 </v>
   <v>       0.61195280       0.38804720       0.65832513 </v>
   <v>       0.38804722       0.61195278       0.34167483 </v>
   <v>       0.38804722       0.61195278       0.65832513 </v>
   <v>       0.38804720       0.38804720       0.34167483 </v>
   <v>       0.38804720       0.38804720       0.65832513 </v>
   <v>       0.61195278       0.61195278       0.34167483 </v>
   <v>       0.61195278       0.61195278       0.65832513 </v>
   <v>       0.44576020       0.32826710       0.58308023 </v>
   <v>       0.67173288       0.55423978       0.58308023 </v>
   <v>       0.55791699       0.44208301       0.41809300 </v>
   <v>       0.32826705       0.44576024       0.41691983 </v>
   <v>       0.55423973       0.67173293       0.41691983 </v>
   <v>       0.55423980       0.32826710       0.58308023 </v>
   <v>       0.32826712       0.55423978       0.58308023 </v>
   <v>       0.67173295       0.44576024       0.41691983 </v>
   <v>       0.44576027       0.67173293       0.41691983 </v>
   <v>       0.44208301       0.44208301       0.41809300 </v>
   <v>       0.50000000       0.38416601       0.50000000 </v>
   <v>       0.61749315       0.50000005       0.34021317 </v>
   <v>       0.61749315       0.50000005       0.65978680 </v>
   <v>       0.38250685       0.50000005       0.34021317 </v>
   <v>       0.38250685       0.50000005       0.65978680 </v>
   <v>       0.38317830       0.38317830       0.50000000 </v>
   <v>       0.61682172       0.61682172       0.50000000 </v>
   <v>       0.61682170       0.38317830       0.50000000 </v>
   <v>       0.38317828       0.61682172       0.50000000 </v>
   <v>       0.50000000       0.50000000       0.33478917 </v>
   <v>       0.50000000       0.50000000       0.66521087 </v>
   <v>       0.32826705       0.44576024       0.58308023 </v>
   <v>       0.55423973       0.67173293       0.58308023 </v>
   <v>       0.55791699       0.44208301       0.58190703 </v>
   <v>       0.44208298       0.55791702       0.41809300 </v>
   <v>       0.44208301       0.44208301       0.58190703 </v>
   <v>       0.67173295       0.44576024       0.58308023 </v>
   <v>       0.44576027       0.67173293       0.58308023 </v>
   <v>       0.55791702       0.55791702       0.41809300 </v>
   <v>       0.38416599       0.50000002       0.50000000 </v>
   <v>       0.61583401       0.50000002       0.50000000 </v>
   <v>       0.50000000       0.61749319       0.34021317 </v>
   <v>       0.50000000       0.61749319       0.65978680 </v>
   <v>       0.50000000       0.50000000       0.50000000 </v>
   <v>       0.44208298       0.55791702       0.58190703 </v>
   <v>       0.55791702       0.55791702       0.58190703 </v>
   <v>       0.50000000       0.61583404       0.50000000 </v>
   <v>       0.47664803       0.48182630       0.75883143 </v>
   <v>       0.47327770       0.47920333       0.79618810 </v>
  </varray>
  <varray name="selective"  type="logical" >
   <v type="logical" >  F  F  F </v>
   <v type="logical" >  F  F  F </v>
   <v type="logical" >  F  F  F </v>
   <v type="logical" >  F  F  F </v>
   <v type="logical" >  F  F  F </v>
   <v type="logical" >  F  F  F </v>
   <v type="logical" >  F  F  F </v>
   <v type="logical" >  F  F  F </v>
   <v type="logical" >  F  F  F </v>
   <v type="logical" >  F  F  F </v>
   <v type="logical" >  F  F  F </v>
   <v type="logical" >  F  F  F </v>
   <v type="logical" >  F  F  F </v>
   <v type="logical" >  F  F  F </v>
   <v type="logical" >  F  F  F </v>
   <v type="logical" >  F  F  F </v>
   <v type="logical" >  F  F  F </v>
   <v type="logical" >  F  F  F </v>
   <v type="logical" >  F  F  F </v>
   <v type="logical" >  F  F  F </v>
   <v type="logical" >  F  F  F </v>
   <v type="logical" >  F  F  F </v>
   <v type="logical" >  F  F  F </v>
   <v type="logical" >  F  F  F </v>
   <v type="logical" >  F  F  F </v>
   <v type="logical" >  F  F  F </v>
   <v type="logical" >  F  F  F </v>
   <v type="logical" >  F  F  F </v>
   <v type="logical" >  F  F  F </v>
   <v type="logical" >  F  F  F </v>
   <v type="logical" >  F  F  F </v>
   <v type="logical" >  F  F  F </v>
   <v type="logical" >  F  F  F </v>
   <v type="logical" >  F  F  F </v>
   <v type="logical" >  F  F  F </v>
   <v type="logical" >  F  F  F </v>
   <v type="logical" >  F  F  F </v>
   <v type="logical" >  F  F  F </v>
   <v type="logical" >  F  F  F </v>
   <v type="logical" >  F  F  F </v>
   <v type="logical" >  F  F  F </v>
   <v type="logical" >  F  F  F </v>
   <v type="logical" >  F  F  F </v>
   <v type="logical" >  F  F  F </v>
   <v type="logical" >  F  F  F </v>
   <v type="logical" >  F  F  F </v>
   <v type="logical" >  F  F  F </v>
   <v type="logical" >  F  F  F </v>
   <v type="logical" >  F  F  F </v>
   <v type="logical" >  F  F  F </v>
   <v type="logical" >  F  F  F </v>
   <v type="logical" >  F  F  F </v>
   <v type="logical" >  F  F  F </v>
   <v type="logical" >  F  F  F </v>
   <v type="logical" >  F  F  F </v>
   <v type="logical" >  F  F  F </v>
   <v type="logical" >  F  F  F </v>
  </varray>
  <nose>
   <v>      -3.00000000       0.00000000       0.00010000       0.00010000 </v>
  </nose>
 </structure>
</modeling>
