  57  57   0   0
  0.4736842E+03  0.3000000E-08  0.3000000E-08  0.3000000E-08  0.5000000E-15
  1.000000000000000E-004
  CAR 
 6_Pd100_top_free_z(O)                   
      1.27996020    -30.71997717  301     -4.15676424      1.00000000
    -30.720  0.0000E+00  0.0000E+00
    -30.613  0.0000E+00  0.0000E+00
    -30.507  0.0000E+00  0.0000E+00
    -30.400  0.3383E-27  0.3608E-28
    -30.293  0.1615E-23  0.1723E-24
    -30.187  0.4300E-20  0.4588E-21
    -30.080  0.6362E-17  0.6791E-18
    -29.973  0.5214E-14  0.5568E-15
    -29.867  0.2360E-11  0.2523E-12
    -29.760  0.5840E-09  0.6254E-10
    -29.653  0.7838E-07  0.8423E-08
    -29.547  0.5618E-05  0.6076E-06
    -29.440  0.2095E-03  0.2296E-04
    -29.333  0.3864E-02  0.4351E-03
    -29.227  0.3102E-01  0.3743E-02
    -29.120  0.5720E-01  0.9845E-02
    -29.013 -0.3442E+00 -0.2687E-01
    -28.907 -0.7118E+00 -0.1028E+00
    -28.800  0.3312E+01  0.2504E+00
    -28.693  0.9635E+01  0.1278E+01
    -28.587  0.6979E+01  0.2023E+01
    -28.480  0.4958E+00  0.2076E+01
    -28.373 -0.7290E+00  0.1998E+01
    -28.267 -0.4945E-01  0.1993E+01
    -28.160  0.5692E-01  0.1999E+01
    -28.053  0.1233E-01  0.2000E+01
    -27.947  0.9876E-03  0.2000E+01
    -27.840  0.3732E-04  0.2000E+01
    -27.733  0.7188E-06  0.2000E+01
    -27.627  0.7312E-08  0.2000E+01
    -27.520  0.4006E-10  0.2000E+01
    -27.413  0.1187E-12  0.2000E+01
    -27.307  0.0000E+00  0.2000E+01
    -27.200  0.0000E+00  0.2000E+01
    -27.093  0.0000E+00  0.2000E+01
    -26.987  0.0000E+00  0.2000E+01
    -26.880  0.0000E+00  0.2000E+01
    -26.773  0.0000E+00  0.2000E+01
    -26.667  0.0000E+00  0.2000E+01
    -26.560  0.0000E+00  0.2000E+01
    -26.453  0.0000E+00  0.2000E+01
    -26.347  0.0000E+00  0.2000E+01
    -26.240  0.0000E+00  0.2000E+01
    -26.133  0.0000E+00  0.2000E+01
    -26.027  0.0000E+00  0.2000E+01
    -25.920  0.0000E+00  0.2000E+01
    -25.813  0.0000E+00  0.2000E+01
    -25.707  0.0000E+00  0.2000E+01
    -25.600  0.0000E+00  0.2000E+01
    -25.493  0.0000E+00  0.2000E+01
    -25.387  0.0000E+00  0.2000E+01
    -25.280  0.0000E+00  0.2000E+01
    -25.173  0.0000E+00  0.2000E+01
    -25.067  0.0000E+00  0.2000E+01
    -24.960  0.0000E+00  0.2000E+01
    -24.853  0.0000E+00  0.2000E+01
    -24.747  0.0000E+00  0.2000E+01
    -24.640  0.0000E+00  0.2000E+01
    -24.533  0.0000E+00  0.2000E+01
    -24.427  0.0000E+00  0.2000E+01
    -24.320  0.0000E+00  0.2000E+01
    -24.213  0.0000E+00  0.2000E+01
    -24.107  0.0000E+00  0.2000E+01
    -24.000  0.0000E+00  0.2000E+01
    -23.893  0.0000E+00  0.2000E+01
    -23.787  0.0000E+00  0.2000E+01
    -23.680  0.0000E+00  0.2000E+01
    -23.573  0.0000E+00  0.2000E+01
    -23.467  0.0000E+00  0.2000E+01
    -23.360  0.0000E+00  0.2000E+01
    -23.253  0.0000E+00  0.2000E+01
    -23.147  0.0000E+00  0.2000E+01
    -23.040  0.0000E+00  0.2000E+01
    -22.933  0.0000E+00  0.2000E+01
    -22.827  0.0000E+00  0.2000E+01
    -22.720  0.0000E+00  0.2000E+01
    -22.613  0.0000E+00  0.2000E+01
    -22.507  0.0000E+00  0.2000E+01
    -22.400  0.0000E+00  0.2000E+01
    -22.293  0.0000E+00  0.2000E+01
    -22.187  0.0000E+00  0.2000E+01
    -22.080  0.0000E+00  0.2000E+01
    -21.973  0.0000E+00  0.2000E+01
    -21.867  0.0000E+00  0.2000E+01
    -21.760  0.0000E+00  0.2000E+01
    -21.653  0.0000E+00  0.2000E+01
    -21.547  0.0000E+00  0.2000E+01
    -21.440  0.0000E+00  0.2000E+01
    -21.333  0.0000E+00  0.2000E+01
    -21.227  0.0000E+00  0.2000E+01
    -21.120  0.0000E+00  0.2000E+01
    -21.013  0.0000E+00  0.2000E+01
    -20.907  0.0000E+00  0.2000E+01
    -20.800  0.0000E+00  0.2000E+01
    -20.693  0.0000E+00  0.2000E+01
    -20.587  0.0000E+00  0.2000E+01
    -20.480  0.0000E+00  0.2000E+01
    -20.373  0.0000E+00  0.2000E+01
    -20.267  0.0000E+00  0.2000E+01
    -20.160  0.0000E+00  0.2000E+01
    -20.053  0.0000E+00  0.2000E+01
    -19.947  0.0000E+00  0.2000E+01
    -19.840  0.0000E+00  0.2000E+01
    -19.733  0.0000E+00  0.2000E+01
    -19.627  0.0000E+00  0.2000E+01
    -19.520  0.0000E+00  0.2000E+01
    -19.413  0.0000E+00  0.2000E+01
    -19.307  0.0000E+00  0.2000E+01
    -19.200  0.0000E+00  0.2000E+01
    -19.093  0.0000E+00  0.2000E+01
    -18.987  0.0000E+00  0.2000E+01
    -18.880  0.0000E+00  0.2000E+01
    -18.773  0.0000E+00  0.2000E+01
    -18.667  0.0000E+00  0.2000E+01
    -18.560  0.0000E+00  0.2000E+01
    -18.453  0.0000E+00  0.2000E+01
    -18.347  0.0000E+00  0.2000E+01
    -18.240  0.0000E+00  0.2000E+01
    -18.133  0.0000E+00  0.2000E+01
    -18.027  0.0000E+00  0.2000E+01
    -17.920  0.0000E+00  0.2000E+01
    -17.813  0.0000E+00  0.2000E+01
    -17.707  0.0000E+00  0.2000E+01
    -17.600  0.0000E+00  0.2000E+01
    -17.493  0.0000E+00  0.2000E+01
    -17.387  0.0000E+00  0.2000E+01
    -17.280  0.0000E+00  0.2000E+01
    -17.173  0.0000E+00  0.2000E+01
    -17.067  0.0000E+00  0.2000E+01
    -16.960  0.0000E+00  0.2000E+01
    -16.853  0.0000E+00  0.2000E+01
    -16.747  0.0000E+00  0.2000E+01
    -16.640  0.0000E+00  0.2000E+01
    -16.533  0.0000E+00  0.2000E+01
    -16.427  0.0000E+00  0.2000E+01
    -16.320  0.0000E+00  0.2000E+01
    -16.213  0.0000E+00  0.2000E+01
    -16.107  0.0000E+00  0.2000E+01
    -16.000  0.0000E+00  0.2000E+01
    -15.893  0.0000E+00  0.2000E+01
    -15.787  0.0000E+00  0.2000E+01
    -15.680  0.0000E+00  0.2000E+01
    -15.573  0.0000E+00  0.2000E+01
    -15.467  0.0000E+00  0.2000E+01
    -15.360  0.0000E+00  0.2000E+01
    -15.253  0.0000E+00  0.2000E+01
    -15.147  0.0000E+00  0.2000E+01
    -15.040  0.3241E-25  0.2000E+01
    -14.933  0.1136E-21  0.2000E+01
    -14.827  0.2215E-18  0.2000E+01
    -14.720  0.2398E-15  0.2000E+01
    -14.613  0.1434E-12  0.2000E+01
    -14.507  0.4723E-10  0.2000E+01
    -14.400  0.8463E-08  0.2000E+01
    -14.293  0.8166E-06  0.2000E+01
    -14.187  0.4158E-04  0.2000E+01
    -14.080  0.1077E-02  0.2000E+01
    -13.973  0.1312E-01  0.2002E+01
    -13.867  0.5823E-01  0.2008E+01
    -13.760 -0.6141E-01  0.2001E+01
    -13.653 -0.7464E+00  0.1922E+01
    -13.547  0.6197E+00  0.1988E+01
    -13.440  0.7188E+01  0.2754E+01
    -13.333  0.9541E+01  0.3772E+01
    -13.227  0.3105E+01  0.4103E+01
    -13.120 -0.7384E+00  0.4024E+01
    -13.013 -0.3215E+00  0.3990E+01
    -12.907  0.5917E-01  0.3996E+01
    -12.800  0.2958E-01  0.4000E+01
    -12.693  0.3581E-02  0.4000E+01
    -12.587  0.1899E-03  0.4000E+01
    -12.480  0.4990E-05  0.4000E+01
    -12.373  0.6831E-07  0.4000E+01
    -12.267  0.8181E-09  0.4000E+01
    -12.160  0.4603E-07  0.4000E+01
    -12.053  0.3569E-05  0.4000E+01
    -11.947  0.1453E-03  0.4000E+01
    -11.840  0.2980E-02  0.4000E+01
    -11.733  0.2809E-01  0.4003E+01
    -11.627  0.8610E-01  0.4013E+01
    -11.520 -0.1948E+00  0.3992E+01
    -11.413 -0.1012E+01  0.3884E+01
    -11.307  0.1719E+01  0.4067E+01
    -11.200  0.1137E+02  0.5280E+01
    -11.093  0.1671E+02  0.7063E+01
    -10.987  0.9142E+01  0.8038E+01
    -10.880  0.5196E+00  0.8093E+01
    -10.773 -0.9066E+00  0.7997E+01
    -10.667 -0.6307E-01  0.7990E+01
    -10.560  0.1169E+00  0.8002E+01
    -10.453  0.6135E-01  0.8009E+01
    -10.347 -0.4548E+00  0.7961E+01
    -10.240 -0.5245E+00  0.7905E+01
    -10.133  0.4328E+01  0.8366E+01
    -10.027  0.9942E+01  0.9427E+01
     -9.920  0.5955E+01  0.1006E+02
     -9.813 -0.6462E-02  0.1006E+02
     -9.707 -0.6314E+00  0.9994E+01
     -9.600 -0.2511E-02  0.9994E+01
     -9.493  0.4994E-01  0.9999E+01
     -9.387  0.9086E-02  0.1000E+02
     -9.280  0.6493E-03  0.1000E+02
     -9.173  0.2224E-04  0.1000E+02
     -9.067  0.3907E-06  0.1000E+02
     -8.960  0.3639E-08  0.1000E+02
     -8.853  0.1829E-10  0.1000E+02
     -8.747  0.4996E-13  0.1000E+02
     -8.640  0.0000E+00  0.1000E+02
     -8.533  0.0000E+00  0.1000E+02
     -8.427  0.0000E+00  0.1000E+02
     -8.320  0.1044E-26  0.1000E+02
     -8.213  0.4622E-23  0.1000E+02
     -8.107  0.1141E-19  0.1000E+02
     -8.000  0.1564E-16  0.1000E+02
     -7.893  0.1187E-13  0.1000E+02
     -7.787  0.4974E-11  0.1000E+02
     -7.680  0.1138E-08  0.1000E+02
     -7.573  0.1410E-06  0.1000E+02
     -7.467  0.9306E-05  0.1000E+02
     -7.360  0.3181E-03  0.1000E+02
     -7.253  0.5322E-02  0.1000E+02
     -7.147  0.3759E-01  0.1000E+02
     -7.040  0.4407E-01  0.1001E+02
     -6.933 -0.4467E+00  0.9962E+01
     -6.827 -0.5433E+00  0.9904E+01
     -6.720  0.4261E+01  0.1036E+02
     -6.613  0.1006E+02  0.1143E+02
     -6.507  0.6114E+01  0.1208E+02
     -6.400 -0.1574E+01  0.1192E+02
     -6.293 -0.1225E+01  0.1178E+02
     -6.187  0.1575E+02  0.1347E+02
     -6.080  0.2803E+02  0.1646E+02
     -5.973  0.1485E+02  0.1804E+02
     -5.867  0.2005E+02  0.2018E+02
     -5.760  0.5403E+02  0.2594E+02
     -5.653  0.1075E+03  0.3741E+02
     -5.547  0.2136E+03  0.6019E+02
     -5.440  0.3025E+03  0.9246E+02
     -5.333  0.2682E+03  0.1211E+03
     -5.227  0.2103E+03  0.1435E+03
     -5.120  0.2507E+03  0.1702E+03
     -5.013  0.3386E+03  0.2063E+03
     -4.907  0.3574E+03  0.2445E+03
     -4.800  0.3130E+03  0.2779E+03
     -4.693  0.3357E+03  0.3137E+03
     -4.587  0.4028E+03  0.3566E+03
     -4.480  0.4122E+03  0.4006E+03
     -4.373  0.4546E+03  0.4491E+03
     -4.267  0.5567E+03  0.5085E+03
     -4.160  0.4727E+03  0.5589E+03
     -4.053  0.1915E+03  0.5793E+03
     -3.947  0.1901E+02  0.5814E+03
     -3.840  0.1570E+02  0.5830E+03
     -3.733  0.2940E+02  0.5862E+03
     -3.627  0.1687E+02  0.5880E+03
     -3.520  0.2090E+02  0.5902E+03
     -3.413  0.2762E+02  0.5931E+03
     -3.307  0.7925E+01  0.5940E+03
     -3.200 -0.3233E+01  0.5936E+03
     -3.093  0.2722E+02  0.5966E+03
     -2.987  0.6164E+02  0.6031E+03
     -2.880  0.4496E+02  0.6079E+03
     -2.773  0.1270E+02  0.6093E+03
     -2.667  0.5847E+01  0.6099E+03
     -2.560  0.1960E+02  0.6120E+03
     -2.453  0.2902E+02  0.6151E+03
     -2.347  0.1818E+02  0.6170E+03
     -2.240  0.1198E+02  0.6183E+03
     -2.133  0.2292E+02  0.6207E+03
     -2.027  0.3533E+02  0.6245E+03
     -1.920  0.4048E+02  0.6288E+03
     -1.813  0.4110E+02  0.6332E+03
     -1.707  0.3993E+02  0.6375E+03
     -1.600  0.4200E+02  0.6420E+03
     -1.493  0.3178E+02  0.6453E+03
     -1.387  0.1881E+02  0.6474E+03
     -1.280  0.2577E+02  0.6501E+03
     -1.173  0.2847E+02  0.6531E+03
     -1.067  0.2592E+02  0.6559E+03
     -0.960  0.4748E+02  0.6610E+03
     -0.853  0.6009E+02  0.6674E+03
     -0.747  0.3427E+02  0.6710E+03
     -0.640  0.9125E+01  0.6720E+03
     -0.533  0.6181E+00  0.6721E+03
     -0.427 -0.7159E+00  0.6720E+03
     -0.320 -0.9911E-01  0.6720E+03
     -0.213  0.1087E+00  0.6720E+03
     -0.107  0.3542E-01  0.6720E+03
     -0.000  0.4049E-02  0.6720E+03
      0.107  0.2136E-03  0.6720E+03
      0.213  0.5666E-05  0.6720E+03
      0.320  0.7868E-07  0.6720E+03
      0.427  0.5851E-09  0.6720E+03
      0.533  0.2361E-11  0.6720E+03
      0.640  0.6245E-14  0.6720E+03
      0.747  0.0000E+00  0.6720E+03
      0.853  0.0000E+00  0.6720E+03
      0.960  0.0000E+00  0.6720E+03
      1.067  0.0000E+00  0.6720E+03
      1.173  0.0000E+00  0.6720E+03
      1.280  0.0000E+00  0.6720E+03
