   57   57    1    1
  0.4736842E+03  0.3000000E-08  0.3000000E-08  0.3000000E-08  0.5000000E-15
  1.000000000000000E-004
  CAR 
 6_Pd100_top_free_z(O)                   
    560      1    336
 
  0.0000000E+00  0.0000000E+00  0.0000000E+00  0.1000000E+01
    1      -28.719977   1.000000
    2      -13.416538   1.000000
    3      -11.214287   1.000000
    4      -11.101340   1.000000
    5      -10.068404   1.000000
    6       -6.653794   1.000000
    7       -6.137555   1.000000
    8       -6.134770   1.000000
    9       -6.130221   1.000000
   10       -5.865814   1.000000
   11       -5.830215   1.000000
   12       -5.826244   1.000000
   13       -5.811551   1.000000
   14       -5.751981   1.000000
   15       -5.714977   1.000000
   16       -5.699948   1.000000
   17       -5.693986   1.000000
   18       -5.684186   1.000000
   19       -5.678425   1.000000
   20       -5.629272   1.000000
   21       -5.624834   1.000000
   22       -5.618165   1.000000
   23       -5.603741   1.000000
   24       -5.601362   1.000000
   25       -5.585409   1.000000
   26       -5.559641   1.000000
   27       -5.554093   1.000000
   28       -5.552706   1.000000
   29       -5.541501   1.000000
   30       -5.534694   1.000000
   31       -5.530907   1.000000
   32       -5.527610   1.000000
   33       -5.523813   1.000000
   34       -5.521231   1.000000
   35       -5.519398   1.000000
   36       -5.511462   1.000000
   37       -5.506554   1.000000
   38       -5.486194   1.000000
   39       -5.483308   1.000000
   40       -5.479115   1.000000
   41       -5.477112   1.000000
   42       -5.476425   1.000000
   43       -5.474215   1.000000
   44       -5.462692   1.000000
   45       -5.447277   1.000000
   46       -5.443488   1.000000
   47       -5.438264   1.000000
   48       -5.436647   1.000000
   49       -5.433112   1.000000
   50       -5.430250   1.000000
   51       -5.429723   1.000000
   52       -5.413879   1.000000
   53       -5.412988   1.000000
   54       -5.410805   1.000000
   55       -5.409899   1.000000
   56       -5.395808   1.000000
   57       -5.389601   1.000000
   58       -5.341204   1.000000
   59       -5.335549   1.000000
   60       -5.333560   1.000000
   61       -5.329333   1.000000
   62       -5.327478   1.000000
   63       -5.310788   1.000000
   64       -5.309856   1.000000
   65       -5.307404   1.000000
   66       -5.301402   1.000000
   67       -5.298490   1.000000
   68       -5.284265   1.000000
   69       -5.262761   1.000000
   70       -5.227103   1.000000
   71       -5.214311   1.000000
   72       -5.211619   1.000000
   73       -5.210897   1.000000
   74       -5.193639   1.000000
   75       -5.184598   1.000000
   76       -5.184285   1.000000
   77       -5.182260   1.000000
   78       -5.173809   1.000000
   79       -5.170895   1.000000
   80       -5.167364   1.000000
   81       -5.161882   1.000000
   82       -5.159545   1.000000
   83       -5.133013   1.000000
   84       -5.129691   1.000000
   85       -5.128499   1.000000
   86       -5.123038   1.000000
   87       -5.120228   1.000000
   88       -5.117519   1.000000
   89       -5.109301   1.000000
   90       -5.066165   1.000000
   91       -5.064624   1.000000
   92       -5.063967   1.000000
   93       -5.060485   1.000000
   94       -5.060060   1.000000
   95       -5.057251   1.000000
   96       -5.040398   1.000000
   97       -5.039149   1.000000
   98       -5.036716   1.000000
   99       -5.035156   1.000000
  100       -5.032168   1.000000
  101       -5.022110   1.000000
  102       -5.020183   1.000000
  103       -5.016122   1.000000
  104       -5.012952   1.000000
  105       -5.002264   1.000000
  106       -4.997999   1.000000
  107       -4.995746   1.000000
  108       -4.994957   1.000000
  109       -4.988337   1.000000
  110       -4.976527   1.000000
  111       -4.975857   1.000000
  112       -4.971641   1.000000
  113       -4.969014   0.999999
  114       -4.965453   0.999999
  115       -4.963399   0.999999
  116       -4.959489   0.999999
  117       -4.955072   0.999999
  118       -4.946480   0.999999
  119       -4.933989   0.999998
  120       -4.924139   0.999998
  121       -4.923756   0.999997
  122       -4.920735   0.999997
  123       -4.914983   0.999997
  124       -4.908928   0.999996
  125       -4.907820   0.999996
  126       -4.907637   0.999996
  127       -4.883117   0.999991
  128       -4.867372   0.999985
  129       -4.853812   0.999977
  130       -4.850382   0.999975
  131       -4.849620   0.999974
  132       -4.848466   0.999973
  133       -4.848107   0.999973
  134       -4.842036   0.999968
  135       -4.838357   0.999964
  136       -4.829577   0.999954
  137       -4.815254   0.999932
  138       -4.805720   0.999912
  139       -4.801455   0.999901
  140       -4.798489   0.999893
  141       -4.797997   0.999892
  142       -4.791467   0.999872
  143       -4.778105   0.999821
  144       -4.770855   0.999786
  145       -4.765229   0.999756
  146       -4.762284   0.999738
  147       -4.755996   0.999696
  148       -4.737168   0.999536
  149       -4.730367   0.999463
  150       -4.721422   0.999352
  151       -4.719308   0.999324
  152       -4.706284   0.999123
  153       -4.694275   0.998898
  154       -4.692213   0.998855
  155       -4.690395   0.998817
  156       -4.689961   0.998808
  157       -4.683105   0.998652
  158       -4.680059   0.998579
  159       -4.673299   0.998406
  160       -4.670152   0.998320
  161       -4.664868   0.998170
  162       -4.661002   0.998055
  163       -4.659074   0.997997
  164       -4.654259   0.997845
  165       -4.653886   0.997833
  166       -4.652985   0.997804
  167       -4.652619   0.997792
  168       -4.649909   0.997702
  169       -4.649284   0.997682
  170       -4.642109   0.997435
  171       -4.630878   0.997030
  172       -4.628330   0.996935
  173       -4.611636   0.996309
  174       -4.604212   0.996038
  175       -4.604011   0.996031
  176       -4.602744   0.995986
  177       -4.602437   0.995975
  178       -4.598856   0.995851
  179       -4.583739   0.995393
  180       -4.583170   0.995378
  181       -4.581790   0.995344
  182       -4.577600   0.995251
  183       -4.577273   0.995244
  184       -4.571532   0.995145
  185       -4.560616   0.995065
  186       -4.558971   0.995068
  187       -4.556861   0.995077
  188       -4.556389   0.995080
  189       -4.555887   0.995084
  190       -4.554455   0.995097
  191       -4.525524   0.996312
  192       -4.515757   0.997241
  193       -4.513073   0.997552
  194       -4.510923   0.997820
  195       -4.510442   0.997882
  196       -4.505911   0.998511
  197       -4.502387   0.999054
  198       -4.493215   1.000704
  199       -4.489958   1.001375
  200       -4.484554   1.002591
  201       -4.475657   1.004877
  202       -4.472133   1.005883
  203       -4.471452   1.006084
  204       -4.466326   1.007663
  205       -4.464805   1.008155
  206       -4.457197   1.010770
  207       -4.455440   1.011411
  208       -4.447710   1.014380
  209       -4.447130   1.014613
  210       -4.443917   1.015924
  211       -4.438847   1.018070
  212       -4.434667   1.019905
  213       -4.432211   1.021006
  214       -4.417913   1.027693
  215       -4.416673   1.028287
  216       -4.416165   1.028531
  217       -4.413800   1.029669
  218       -4.408663   1.032142
  219       -4.406940   1.032969
  220       -4.378918   1.045276
  221       -4.376613   1.046105
  222       -4.373718   1.047084
  223       -4.366502   1.049182
  224       -4.356911   1.051052
  225       -4.354288   1.051348
  226       -4.344275   1.051470
  227       -4.344084   1.051455
  228       -4.341666   1.051211
  229       -4.340274   1.051019
  230       -4.339793   1.050944
  231       -4.339273   1.050857
  232       -4.334408   1.049776
  233       -4.333849   1.049620
  234       -4.333722   1.049583
  235       -4.328731   1.047857
  236       -4.327031   1.047135
  237       -4.326297   1.046802
  238       -4.324702   1.046031
  239       -4.324397   1.045877
  240       -4.314733   1.039709
  241       -4.308490   1.034329
  242       -4.306551   1.032419
  243       -4.300692   1.025935
  244       -4.292678   1.015244
  245       -4.292049   1.014311
  246       -4.290648   1.012187
  247       -4.289726   1.010751
  248       -4.289521   1.010428
  249       -4.284749   1.002480
  250       -4.279758   0.993283
  251       -4.271441   0.975895
  252       -4.270715   0.974252
  253       -4.261175   0.950791
  254       -4.261021   0.950383
  255       -4.257610   0.941121
  256       -4.255408   0.934901
  257       -4.254205   0.931422
  258       -4.252752   0.927147
  259       -4.250066   0.919028
  260       -4.249370   0.916882
  261       -4.248784   0.915057
  262       -4.247099   0.909740
  263       -4.245453   0.904443
  264       -4.243271   0.897256
  265       -4.241207   0.890297
  266       -4.238822   0.882054
  267       -4.236069   0.872279
  268       -4.227561   0.840328
  269       -4.225022   0.830299
  270       -4.224129   0.826717
  271       -4.222270   0.819179
  272       -4.217480   0.799230
  273       -4.208248   0.758765
  274       -4.203841   0.738585
  275       -4.189575   0.669964
  276       -4.186507   0.654644
  277       -4.183389   0.638904
  278       -4.183083   0.637350
  279       -4.178806   0.615493
  280       -4.177656   0.609570
  281       -4.177204   0.607236
  282       -4.163466   0.535419
  283       -4.137452   0.398589
  284       -4.136344   0.392861
  285       -4.133213   0.376766
  286       -4.132919   0.375259
  287       -4.120948   0.315202
  288       -4.120206   0.311569
  289       -4.109094   0.258666
  290       -3.973210  -0.051026
  291       -3.897078  -0.028394
  292       -3.820216  -0.000684
  293       -3.819581  -0.000559
  294       -3.721807   0.004381
  295       -3.505885   0.000084
  296       -3.496178   0.000065
  297       -3.464306   0.000026
  298       -3.067833   0.000000
  299       -3.061927   0.000000
  300       -3.050998   0.000000
  301       -3.034465   0.000000
  302       -3.014792   0.000000
  303       -2.968893   0.000000
  304       -2.940180   0.000000
  305       -2.778372   0.000000
  306       -2.557486   0.000000
  307       -2.525480   0.000000
  308       -2.498689   0.000000
  309       -2.343154   0.000000
  310       -2.187799   0.000000
  311       -2.120171   0.000000
  312       -2.076501   0.000000
  313       -2.022434   0.000000
  314       -1.961313   0.000000
  315       -1.900413   0.000000
  316       -1.863462   0.000000
  317       -1.846837   0.000000
  318       -1.763730   0.000000
  319       -1.720073   0.000000
  320       -1.647509   0.000000
  321       -1.608536   0.000000
  322       -1.582248   0.000000
  323       -1.549895   0.000000
  324       -1.372987   0.000000
  325       -1.317986   0.000000
  326       -1.241528   0.000000
  327       -1.211042   0.000000
  328       -1.114797   0.000000
  329       -0.988370   0.000000
  330       -0.973901   0.000000
  331       -0.952702   0.000000
  332       -0.936186   0.000000
  333       -0.908153   0.000000
  334       -0.879914   0.000000
  335       -0.843528   0.000000
  336       -0.720040   0.000000
