       N       E                     dE             d eps       ncg     rms          rms(c)
DAV:   1     0.438562421816E+04    0.43856E+04   -0.10050E+05   688   0.815E+02
DAV:   2     0.200970045176E+04   -0.23759E+04   -0.21377E+04  1224   0.105E+02
DAV:   3     0.236129122655E+03   -0.17736E+04   -0.16694E+04   992   0.917E+01
DAV:   4    -0.135544372344E+03   -0.37167E+03   -0.31658E+03   832   0.435E+01
DAV:   5    -0.179604809280E+03   -0.44060E+02   -0.36924E+02  1056   0.145E+01    0.143E+01
RMM:   6    -0.179049501494E+03    0.55531E+00   -0.51149E+01   731   0.843E+00    0.220E+01
RMM:   7    -0.182232096584E+03   -0.31826E+01   -0.18802E+01   866   0.443E+00    0.234E+01
RMM:   8    -0.184029959004E+03   -0.17979E+01   -0.66689E+00   789   0.335E+00    0.251E+01
RMM:   9    -0.182735588140E+03    0.12944E+01   -0.53129E+00   734   0.330E+00    0.260E+01
RMM:  10    -0.179784174937E+03    0.29514E+01   -0.28774E+00   740   0.253E+00    0.222E+01
RMM:  11    -0.178031445764E+03    0.17527E+01   -0.21225E+00   730   0.215E+00    0.168E+01
RMM:  12    -0.177309449088E+03    0.72200E+00   -0.10611E+00   722   0.152E+00    0.160E+01
RMM:  13    -0.177136735230E+03    0.17271E+00   -0.11669E+00   724   0.159E+00    0.151E+01
RMM:  14    -0.176876636701E+03    0.26010E+00   -0.10932E+00   713   0.154E+00    0.174E+01
RMM:  15    -0.176837446982E+03    0.39190E-01   -0.87037E-01   721   0.139E+00    0.220E+01
RMM:  16    -0.176327186488E+03    0.51026E+00   -0.82196E-01   714   0.135E+00    0.174E+01
RMM:  17    -0.175564135512E+03    0.76305E+00   -0.67624E-01   710   0.121E+00    0.938E+00
RMM:  18    -0.175677476468E+03   -0.11334E+00   -0.57047E-01   708   0.112E+00    0.121E+01
RMM:  19    -0.175594232641E+03    0.83244E-01   -0.39430E-01   706   0.945E-01    0.101E+01
RMM:  20    -0.175484910488E+03    0.10932E+00   -0.27878E-01   713   0.819E-01    0.104E+01
RMM:  21    -0.175144261921E+03    0.34065E+00   -0.22974E-01   699   0.750E-01    0.630E+00
RMM:  22    -0.175120558085E+03    0.23704E-01   -0.19703E-01   700   0.688E-01    0.588E+00
RMM:  23    -0.175091090783E+03    0.29467E-01   -0.16803E-01   696   0.637E-01    0.643E+00
RMM:  24    -0.175001993007E+03    0.89098E-01   -0.13642E-01   694   0.574E-01    0.558E+00
RMM:  25    -0.174922042331E+03    0.79951E-01   -0.71685E-02   695   0.431E-01    0.425E+00
RMM:  26    -0.174860536148E+03    0.61506E-01   -0.61840E-02   690   0.389E-01    0.281E+00
RMM:  27    -0.174838582102E+03    0.21954E-01   -0.41065E-02   694   0.320E-01    0.225E+00
RMM:  28    -0.174826663906E+03    0.11918E-01   -0.28522E-02   694   0.265E-01    0.217E+00
RMM:  29    -0.174806877705E+03    0.19786E-01   -0.19440E-02   691   0.229E-01    0.138E+00
RMM:  30    -0.174802167351E+03    0.47104E-02   -0.13957E-02   693   0.191E-01    0.122E+00
RMM:  31    -0.174796145287E+03    0.60221E-02   -0.91319E-03   693   0.153E-01    0.989E-01
RMM:  32    -0.174793373384E+03    0.27719E-02   -0.57099E-03   694   0.124E-01    0.769E-01
RMM:  33    -0.174794434626E+03   -0.10612E-02   -0.42014E-03   690   0.106E-01    0.931E-01
RMM:  34    -0.174790919877E+03    0.35147E-02   -0.27272E-03   688   0.885E-02    0.453E-01
RMM:  35    -0.174792550118E+03   -0.16302E-02   -0.20938E-03   685   0.729E-02    0.599E-01
RMM:  36    -0.174794615716E+03   -0.20656E-02   -0.23932E-03   689   0.729E-02    0.543E-01
RMM:  37    -0.174795348763E+03   -0.73305E-03   -0.11367E-03   686   0.552E-02    0.383E-01
RMM:  38    -0.174797055831E+03   -0.17071E-02   -0.74666E-04   650   0.440E-02    0.333E-01
RMM:  39    -0.174798833193E+03   -0.17774E-02   -0.55440E-04   572   0.384E-02    0.219E-01
RMM:  40    -0.174799906060E+03   -0.10729E-02   -0.24856E-04   409   0.272E-02    0.187E-01
RMM:  41    -0.174802702023E+03   -0.27960E-02   -0.28477E-04   427   0.273E-02    0.155E-01
RMM:  42    -0.174804342558E+03   -0.16405E-02   -0.22918E-04   419   0.235E-02    0.154E-01
RMM:  43    -0.174808564794E+03   -0.42222E-02   -0.67824E-04   583   0.325E-02    0.235E-01
RMM:  44    -0.174810229258E+03   -0.16645E-02   -0.32717E-04   454   0.247E-02    0.108E-01
RMM:  45    -0.174811734785E+03   -0.15055E-02   -0.23891E-04   426   0.202E-02    0.145E-01
RMM:  46    -0.174813597866E+03   -0.18631E-02   -0.26577E-04   438   0.195E-02    0.113E-01
RMM:  47    -0.174814214345E+03   -0.61648E-03   -0.10692E-04   416   0.131E-02    0.769E-02
RMM:  48    -0.174815465099E+03   -0.12508E-02   -0.11316E-04   410   0.130E-02    0.751E-02
RMM:  49    -0.174815991227E+03   -0.52613E-03   -0.60840E-05   408   0.951E-03    0.626E-02
RMM:  50    -0.174816761687E+03   -0.77046E-03   -0.45699E-05   407   0.820E-03    0.341E-02
RMM:  51    -0.174817075733E+03   -0.31405E-03   -0.27053E-05   386   0.664E-03    0.330E-02
RMM:  52    -0.174817870030E+03   -0.79430E-03   -0.27298E-05   381   0.642E-03    0.275E-02
RMM:  53    -0.174818221669E+03   -0.35164E-03   -0.13908E-05   284   0.498E-03    0.198E-02
RMM:  54    -0.174818608273E+03   -0.38660E-03   -0.10676E-05   245   0.466E-03    0.172E-02
RMM:  55    -0.174818822152E+03   -0.21388E-03   -0.56676E-06   192   0.413E-03    0.150E-02
RMM:  56    -0.174819118954E+03   -0.29680E-03   -0.69946E-06   197   0.403E-03    0.127E-02
RMM:  57    -0.174819283470E+03   -0.16452E-03   -0.39037E-06   144   0.359E-03    0.104E-02
RMM:  58    -0.174819552397E+03   -0.26893E-03   -0.12410E-05   218   0.421E-03    0.906E-03
RMM:  59    -0.174819694867E+03   -0.14247E-03   -0.44437E-06   140   0.367E-03    0.802E-03
RMM:  60    -0.174819857538E+03   -0.16267E-03   -0.11238E-05   192   0.413E-03    0.652E-03
RMM:  61    -0.174819856521E+03    0.10168E-05    0.85929E-09    66   0.318E-03
   1 F= -.17481986E+03 E0= -.17479418E+03  d E =-.102696E+00
