  57  57   0   0
  0.4736842E+03  0.3000000E-08  0.3000000E-08  0.3000000E-08  0.5000000E-15
  1.000000000000000E-004
  CAR 
 6_Pd100_top_free_z(O)                   
      1.38428186    -31.31745010  301     -4.11972841      1.00000000
    -31.317  0.0000E+00  0.0000E+00
    -31.208  0.0000E+00  0.0000E+00
    -31.099  0.0000E+00  0.0000E+00
    -30.990  0.5884E-27  0.6414E-28
    -30.881  0.3232E-23  0.3524E-24
    -30.772  0.9642E-20  0.1051E-20
    -30.663  0.1557E-16  0.1698E-17
    -30.554  0.1356E-13  0.1480E-14
    -30.445  0.6347E-11  0.6933E-12
    -30.336  0.1579E-08  0.1728E-09
    -30.227  0.2069E-06  0.2272E-07
    -30.118  0.1401E-04  0.1550E-05
    -30.009  0.4754E-03  0.5337E-04
    -29.900  0.7559E-02  0.8774E-03
    -29.791  0.4658E-01  0.5955E-02
    -29.682  0.7001E-02  0.6718E-02
    -29.573 -0.6159E+00 -0.6042E-01
    -29.464  0.1557E-01 -0.5873E-01
    -29.355  0.6136E+01  0.6101E+00
    -29.246  0.9844E+01  0.1683E+01
    -29.137  0.3832E+01  0.2101E+01
    -29.028 -0.6472E+00  0.2030E+01
    -28.919 -0.3674E+00  0.1990E+01
    -28.810  0.5594E-01  0.1996E+01
    -28.701  0.3036E-01  0.2000E+01
    -28.592  0.3550E-02  0.2000E+01
    -28.483  0.1753E-03  0.2000E+01
    -28.374  0.4165E-05  0.2000E+01
    -28.265  0.5017E-07  0.2000E+01
    -28.156  0.3145E-09  0.2000E+01
    -28.047  0.1043E-11  0.2000E+01
    -27.938  0.2037E-14  0.2000E+01
    -27.829  0.0000E+00  0.2000E+01
    -27.720  0.0000E+00  0.2000E+01
    -27.611  0.0000E+00  0.2000E+01
    -27.502  0.0000E+00  0.2000E+01
    -27.393  0.0000E+00  0.2000E+01
    -27.284  0.0000E+00  0.2000E+01
    -27.175  0.0000E+00  0.2000E+01
    -27.066  0.0000E+00  0.2000E+01
    -26.957  0.0000E+00  0.2000E+01
    -26.848  0.0000E+00  0.2000E+01
    -26.739  0.0000E+00  0.2000E+01
    -26.630  0.0000E+00  0.2000E+01
    -26.521  0.0000E+00  0.2000E+01
    -26.412  0.0000E+00  0.2000E+01
    -26.303  0.0000E+00  0.2000E+01
    -26.194  0.0000E+00  0.2000E+01
    -26.085  0.0000E+00  0.2000E+01
    -25.976  0.0000E+00  0.2000E+01
    -25.867  0.0000E+00  0.2000E+01
    -25.758  0.0000E+00  0.2000E+01
    -25.649  0.0000E+00  0.2000E+01
    -25.540  0.0000E+00  0.2000E+01
    -25.431  0.0000E+00  0.2000E+01
    -25.322  0.0000E+00  0.2000E+01
    -25.213  0.0000E+00  0.2000E+01
    -25.104  0.0000E+00  0.2000E+01
    -24.995  0.0000E+00  0.2000E+01
    -24.886  0.0000E+00  0.2000E+01
    -24.777  0.0000E+00  0.2000E+01
    -24.668  0.0000E+00  0.2000E+01
    -24.559  0.0000E+00  0.2000E+01
    -24.450  0.0000E+00  0.2000E+01
    -24.341  0.0000E+00  0.2000E+01
    -24.232  0.0000E+00  0.2000E+01
    -24.123  0.0000E+00  0.2000E+01
    -24.014  0.0000E+00  0.2000E+01
    -23.905  0.0000E+00  0.2000E+01
    -23.796  0.0000E+00  0.2000E+01
    -23.687  0.0000E+00  0.2000E+01
    -23.578  0.0000E+00  0.2000E+01
    -23.469  0.0000E+00  0.2000E+01
    -23.360  0.0000E+00  0.2000E+01
    -23.251  0.0000E+00  0.2000E+01
    -23.142  0.0000E+00  0.2000E+01
    -23.033  0.0000E+00  0.2000E+01
    -22.924  0.0000E+00  0.2000E+01
    -22.815  0.0000E+00  0.2000E+01
    -22.706  0.0000E+00  0.2000E+01
    -22.597  0.0000E+00  0.2000E+01
    -22.488  0.0000E+00  0.2000E+01
    -22.379  0.0000E+00  0.2000E+01
    -22.270  0.0000E+00  0.2000E+01
    -22.161  0.0000E+00  0.2000E+01
    -22.052  0.0000E+00  0.2000E+01
    -21.943  0.0000E+00  0.2000E+01
    -21.834  0.0000E+00  0.2000E+01
    -21.725  0.0000E+00  0.2000E+01
    -21.616  0.0000E+00  0.2000E+01
    -21.507  0.0000E+00  0.2000E+01
    -21.398  0.0000E+00  0.2000E+01
    -21.289  0.0000E+00  0.2000E+01
    -21.180  0.0000E+00  0.2000E+01
    -21.071  0.0000E+00  0.2000E+01
    -20.962  0.0000E+00  0.2000E+01
    -20.853  0.0000E+00  0.2000E+01
    -20.744  0.0000E+00  0.2000E+01
    -20.635  0.0000E+00  0.2000E+01
    -20.526  0.0000E+00  0.2000E+01
    -20.417  0.0000E+00  0.2000E+01
    -20.308  0.0000E+00  0.2000E+01
    -20.199  0.0000E+00  0.2000E+01
    -20.090  0.0000E+00  0.2000E+01
    -19.981  0.0000E+00  0.2000E+01
    -19.872  0.0000E+00  0.2000E+01
    -19.763  0.0000E+00  0.2000E+01
    -19.654  0.0000E+00  0.2000E+01
    -19.545  0.0000E+00  0.2000E+01
    -19.436  0.0000E+00  0.2000E+01
    -19.327  0.0000E+00  0.2000E+01
    -19.218  0.0000E+00  0.2000E+01
    -19.109  0.0000E+00  0.2000E+01
    -19.000  0.0000E+00  0.2000E+01
    -18.891  0.0000E+00  0.2000E+01
    -18.782  0.0000E+00  0.2000E+01
    -18.673  0.0000E+00  0.2000E+01
    -18.564  0.0000E+00  0.2000E+01
    -18.455  0.0000E+00  0.2000E+01
    -18.346  0.0000E+00  0.2000E+01
    -18.237  0.0000E+00  0.2000E+01
    -18.128  0.0000E+00  0.2000E+01
    -18.019  0.0000E+00  0.2000E+01
    -17.910  0.0000E+00  0.2000E+01
    -17.801  0.0000E+00  0.2000E+01
    -17.692  0.0000E+00  0.2000E+01
    -17.583  0.0000E+00  0.2000E+01
    -17.474  0.0000E+00  0.2000E+01
    -17.365  0.0000E+00  0.2000E+01
    -17.256  0.0000E+00  0.2000E+01
    -17.147  0.0000E+00  0.2000E+01
    -17.038  0.0000E+00  0.2000E+01
    -16.929  0.0000E+00  0.2000E+01
    -16.820  0.0000E+00  0.2000E+01
    -16.711  0.0000E+00  0.2000E+01
    -16.602  0.0000E+00  0.2000E+01
    -16.493  0.0000E+00  0.2000E+01
    -16.384  0.0000E+00  0.2000E+01
    -16.275  0.0000E+00  0.2000E+01
    -16.166  0.0000E+00  0.2000E+01
    -16.057  0.0000E+00  0.2000E+01
    -15.948  0.0000E+00  0.2000E+01
    -15.839  0.0000E+00  0.2000E+01
    -15.730  0.2541E-26  0.2000E+01
    -15.621  0.1262E-22  0.2000E+01
    -15.512  0.3403E-19  0.2000E+01
    -15.403  0.4965E-16  0.2000E+01
    -15.294  0.3903E-13  0.2000E+01
    -15.185  0.1647E-10  0.2000E+01
    -15.076  0.3691E-08  0.2000E+01
    -14.967  0.4343E-06  0.2000E+01
    -14.858  0.2632E-04  0.2000E+01
    -14.749  0.7927E-03  0.2000E+01
    -14.640  0.1099E-01  0.2001E+01
    -14.531  0.5519E-01  0.2007E+01
    -14.422 -0.4585E-01  0.2002E+01
    -14.313 -0.7315E+00  0.1923E+01
    -14.204  0.6352E+00  0.1992E+01
    -14.095  0.7332E+01  0.2791E+01
    -13.986  0.9362E+01  0.3812E+01
    -13.877  0.2670E+01  0.4103E+01
    -13.768 -0.7858E+00  0.4017E+01
    -13.659 -0.2440E+00  0.3990E+01
    -13.550  0.6353E-01  0.3997E+01
    -13.441  0.2475E-01  0.4000E+01
    -13.331  0.2235E-01  0.4002E+01
    -13.222  0.6402E-01  0.4009E+01
    -13.113 -0.1968E+00  0.3988E+01
    -13.004 -0.8081E+00  0.3900E+01
    -12.895  0.2211E+01  0.4141E+01
    -12.786  0.9062E+01  0.5129E+01
    -12.677  0.7809E+01  0.5980E+01
    -12.568  0.9914E+00  0.6088E+01
    -12.459 -0.7145E+00  0.6010E+01
    -12.350 -0.4554E+00  0.5960E+01
    -12.241 -0.5680E+00  0.5899E+01
    -12.132  0.3962E+01  0.6330E+01
    -12.023  0.9874E+01  0.7407E+01
    -11.914  0.6015E+01  0.8062E+01
    -11.805 -0.3426E-01  0.8059E+01
    -11.696 -0.6034E+00  0.7993E+01
    -11.587  0.1102E-01  0.7994E+01
    -11.478  0.4571E-01  0.7999E+01
    -11.369  0.7281E-02  0.8000E+01
    -11.260  0.4812E-03  0.8000E+01
    -11.151  0.8784E-03  0.8000E+01
    -11.042  0.1171E-01  0.8001E+01
    -10.933  0.5654E-01  0.8008E+01
    -10.824 -0.5738E-01  0.8001E+01
    -10.715 -0.7480E+00  0.7920E+01
    -10.606  0.7638E+00  0.8003E+01
    -10.497  0.7529E+01  0.8824E+01
    -10.388  0.9246E+01  0.9832E+01
    -10.279  0.2479E+01  0.1010E+02
    -10.170 -0.7973E+00  0.1001E+02
    -10.061 -0.2242E+00  0.9990E+01
     -9.952  0.6381E-01  0.9997E+01
     -9.843  0.2170E-01  0.1000E+02
     -9.734  0.2106E-02  0.1000E+02
     -9.625  0.8967E-04  0.1000E+02
     -9.516  0.1862E-05  0.1000E+02
     -9.407  0.1973E-07  0.1000E+02
     -9.298  0.1092E-09  0.1000E+02
     -9.189  0.3198E-12  0.1000E+02
     -9.080  0.0000E+00  0.1000E+02
     -8.971  0.1233E-24  0.1000E+02
     -8.862  0.4662E-21  0.1000E+02
     -8.753  0.9555E-18  0.1000E+02
     -8.644  0.1058E-14  0.1000E+02
     -8.535  0.6305E-12  0.1000E+02
     -8.426  0.2006E-09  0.1000E+02
     -8.317  0.3375E-07  0.1000E+02
     -8.208  0.2961E-05  0.1000E+02
     -8.099  0.1320E-03  0.1000E+02
     -7.990  0.2850E-02  0.1000E+02
     -7.881  0.2644E-01  0.1000E+02
     -7.772  0.6099E-01  0.1001E+02
     -7.663 -0.3032E+00  0.9977E+01
     -7.554 -0.7334E+00  0.9897E+01
     -7.445  0.3233E+01  0.1025E+02
     -7.336  0.9642E+01  0.1130E+02
     -7.227  0.6755E+01  0.1204E+02
     -7.118  0.3402E+00  0.1207E+02
     -7.009 -0.6354E+00  0.1200E+02
     -6.900 -0.4787E+00  0.1195E+02
     -6.791 -0.3245E+00  0.1192E+02
     -6.682  0.4811E+01  0.1244E+02
     -6.573  0.9418E+01  0.1347E+02
     -6.464  0.5574E+01  0.1408E+02
     -6.355  0.5211E+01  0.1464E+02
     -6.246  0.1193E+02  0.1594E+02
     -6.137  0.2530E+02  0.1870E+02
     -6.028  0.3467E+02  0.2248E+02
     -5.919  0.2944E+02  0.2569E+02
     -5.810  0.3174E+02  0.2915E+02
     -5.701  0.6131E+02  0.3583E+02
     -5.592  0.1336E+03  0.5040E+02
     -5.483  0.2398E+03  0.7654E+02
     -5.374  0.2880E+03  0.1079E+03
     -5.265  0.2394E+03  0.1340E+03
     -5.156  0.2142E+03  0.1574E+03
     -5.047  0.2868E+03  0.1886E+03
     -4.938  0.3561E+03  0.2274E+03
     -4.829  0.3224E+03  0.2626E+03
     -4.720  0.2895E+03  0.2942E+03
     -4.611  0.3627E+03  0.3337E+03
     -4.502  0.4192E+03  0.3794E+03
     -4.393  0.4258E+03  0.4258E+03
     -4.284  0.5050E+03  0.4809E+03
     -4.175  0.5303E+03  0.5387E+03
     -4.066  0.3112E+03  0.5726E+03
     -3.957  0.6904E+02  0.5801E+03
     -3.848  0.1651E+02  0.5819E+03
     -3.739  0.3213E+02  0.5854E+03
     -3.630  0.2046E+02  0.5876E+03
     -3.521  0.1297E+02  0.5891E+03
     -3.412  0.1794E+02  0.5910E+03
     -3.303  0.1027E+02  0.5921E+03
     -3.194  0.5245E+01  0.5927E+03
     -3.085  0.2762E+02  0.5957E+03
     -2.976  0.6002E+02  0.6023E+03
     -2.867  0.5002E+02  0.6077E+03
     -2.758  0.1681E+02  0.6095E+03
     -2.649  0.3211E+01  0.6099E+03
     -2.540  0.1059E+02  0.6110E+03
     -2.431  0.2323E+02  0.6136E+03
     -2.322  0.2263E+02  0.6160E+03
     -2.213  0.1792E+02  0.6180E+03
     -2.104  0.2203E+02  0.6204E+03
     -1.995  0.3214E+02  0.6239E+03
     -1.886  0.4202E+02  0.6285E+03
     -1.777  0.4452E+02  0.6333E+03
     -1.668  0.3703E+02  0.6374E+03
     -1.559  0.3344E+02  0.6410E+03
     -1.450  0.3260E+02  0.6446E+03
     -1.341  0.2559E+02  0.6474E+03
     -1.232  0.2020E+02  0.6496E+03
     -1.123  0.2209E+02  0.6520E+03
     -1.014  0.3280E+02  0.6555E+03
     -0.905  0.5301E+02  0.6613E+03
     -0.796  0.5229E+02  0.6670E+03
     -0.687  0.2924E+02  0.6702E+03
     -0.578  0.1278E+02  0.6716E+03
     -0.469  0.4212E+01  0.6721E+03
     -0.360 -0.2933E+00  0.6720E+03
     -0.251 -0.4227E+00  0.6720E+03
     -0.142  0.6760E-01  0.6720E+03
     -0.033  0.5301E-01  0.6720E+03
      0.076  0.7870E-02  0.6720E+03
      0.185  0.4829E-03  0.6720E+03
      0.294  0.1410E-04  0.6720E+03
      0.403  0.2075E-06  0.6720E+03
      0.512  0.1581E-08  0.6720E+03
      0.621  0.6349E-11  0.6720E+03
      0.730  0.1426E-13  0.6720E+03
      0.839  0.0000E+00  0.6720E+03
      0.948  0.0000E+00  0.6720E+03
      1.057  0.0000E+00  0.6720E+03
      1.166  0.0000E+00  0.6720E+03
      1.275  0.0000E+00  0.6720E+03
      1.384  0.0000E+00  0.6720E+03
