   57   57    1    1
  0.4736842E+03  0.3000000E-08  0.3000000E-08  0.3000000E-08  0.5000000E-15
  1.000000000000000E-004
  CAR 
 6_Pd100_top_free_z(O)                   
    560      1    336
 
  0.0000000E+00  0.0000000E+00  0.0000000E+00  0.1000000E+01
    1      -29.317450   1.000000
    2      -14.074628   1.000000
    3      -12.798664   1.000000
    4      -12.063067   1.000000
    5      -10.480592   1.000000
    6       -7.365028   1.000000
    7       -6.625191   1.000000
    8       -6.336650   1.000000
    9       -6.175307   1.000000
   10       -6.110811   1.000000
   11       -6.085689   1.000000
   12       -6.034987   1.000000
   13       -5.919337   1.000000
   14       -5.900291   1.000000
   15       -5.798433   1.000000
   16       -5.782640   1.000000
   17       -5.741940   1.000000
   18       -5.708892   1.000000
   19       -5.695857   1.000000
   20       -5.663311   1.000000
   21       -5.656309   1.000000
   22       -5.651079   1.000000
   23       -5.629016   1.000000
   24       -5.603624   1.000000
   25       -5.597239   1.000000
   26       -5.579840   1.000000
   27       -5.572379   1.000000
   28       -5.562106   1.000000
   29       -5.556422   1.000000
   30       -5.549376   1.000000
   31       -5.536819   1.000000
   32       -5.519500   1.000000
   33       -5.512771   1.000000
   34       -5.503829   1.000000
   35       -5.502559   1.000000
   36       -5.493844   1.000000
   37       -5.489408   1.000000
   38       -5.485112   1.000000
   39       -5.479339   1.000000
   40       -5.473215   1.000000
   41       -5.467548   1.000000
   42       -5.454725   1.000000
   43       -5.453856   1.000000
   44       -5.446094   1.000000
   45       -5.443539   1.000000
   46       -5.442015   1.000000
   47       -5.438120   1.000000
   48       -5.428368   1.000000
   49       -5.415725   1.000000
   50       -5.414584   1.000000
   51       -5.406495   1.000000
   52       -5.395381   1.000000
   53       -5.392827   1.000000
   54       -5.384612   1.000000
   55       -5.378651   1.000000
   56       -5.371092   1.000000
   57       -5.363237   1.000000
   58       -5.348841   1.000000
   59       -5.343833   1.000000
   60       -5.341354   1.000000
   61       -5.315879   1.000000
   62       -5.312611   1.000000
   63       -5.296911   1.000000
   64       -5.295313   1.000000
   65       -5.287661   1.000000
   66       -5.282629   1.000000
   67       -5.279446   1.000000
   68       -5.275605   1.000000
   69       -5.269863   1.000000
   70       -5.262943   1.000000
   71       -5.237232   1.000000
   72       -5.227758   1.000000
   73       -5.209754   1.000000
   74       -5.193868   1.000000
   75       -5.180592   1.000000
   76       -5.167829   1.000000
   77       -5.161759   1.000000
   78       -5.154627   1.000000
   79       -5.151540   1.000000
   80       -5.146825   1.000000
   81       -5.138839   1.000000
   82       -5.128833   1.000000
   83       -5.121618   1.000000
   84       -5.119445   1.000000
   85       -5.104462   1.000000
   86       -5.099645   1.000000
   87       -5.098523   1.000000
   88       -5.092709   1.000000
   89       -5.081356   1.000000
   90       -5.079387   1.000000
   91       -5.073512   1.000000
   92       -5.056786   1.000000
   93       -5.043969   1.000000
   94       -5.040032   1.000000
   95       -5.032149   1.000000
   96       -5.030836   1.000000
   97       -5.028016   1.000000
   98       -5.023810   1.000000
   99       -5.023085   1.000000
  100       -5.015424   1.000000
  101       -5.013500   1.000000
  102       -5.005381   1.000000
  103       -4.993864   1.000000
  104       -4.988903   1.000000
  105       -4.984283   1.000000
  106       -4.979181   1.000000
  107       -4.976039   1.000000
  108       -4.974454   1.000000
  109       -4.972016   1.000000
  110       -4.969522   1.000000
  111       -4.963800   1.000000
  112       -4.956800   1.000000
  113       -4.951468   1.000000
  114       -4.944360   1.000000
  115       -4.934483   1.000000
  116       -4.930411   0.999999
  117       -4.929661   0.999999
  118       -4.923536   0.999999
  119       -4.913382   0.999999
  120       -4.908814   0.999999
  121       -4.900908   0.999998
  122       -4.896007   0.999998
  123       -4.888529   0.999998
  124       -4.887462   0.999998
  125       -4.882980   0.999997
  126       -4.875839   0.999996
  127       -4.874133   0.999996
  128       -4.864400   0.999995
  129       -4.860112   0.999994
  130       -4.843695   0.999990
  131       -4.834745   0.999987
  132       -4.830027   0.999985
  133       -4.825326   0.999982
  134       -4.818815   0.999978
  135       -4.810322   0.999972
  136       -4.804804   0.999967
  137       -4.803630   0.999966
  138       -4.796765   0.999959
  139       -4.784943   0.999943
  140       -4.774157   0.999924
  141       -4.766055   0.999905
  142       -4.753842   0.999870
  143       -4.742902   0.999829
  144       -4.737831   0.999806
  145       -4.735067   0.999793
  146       -4.721770   0.999716
  147       -4.711114   0.999637
  148       -4.708542   0.999615
  149       -4.705182   0.999585
  150       -4.695862   0.999492
  151       -4.683700   0.999343
  152       -4.681112   0.999307
  153       -4.674966   0.999216
  154       -4.670656   0.999147
  155       -4.657564   0.998905
  156       -4.652664   0.998802
  157       -4.649528   0.998732
  158       -4.647921   0.998696
  159       -4.644726   0.998620
  160       -4.642929   0.998576
  161       -4.636397   0.998409
  162       -4.632928   0.998315
  163       -4.627178   0.998151
  164       -4.625060   0.998088
  165       -4.621410   0.997977
  166       -4.618281   0.997879
  167       -4.615610   0.997793
  168       -4.613752   0.997732
  169       -4.609348   0.997584
  170       -4.601469   0.997308
  171       -4.599433   0.997234
  172       -4.597699   0.997171
  173       -4.589683   0.996875
  174       -4.584154   0.996667
  175       -4.578530   0.996456
  176       -4.573881   0.996282
  177       -4.569429   0.996119
  178       -4.566488   0.996014
  179       -4.562928   0.995889
  180       -4.558085   0.995727
  181       -4.556137   0.995664
  182       -4.546772   0.995395
  183       -4.542331   0.995288
  184       -4.536056   0.995168
  185       -4.532018   0.995113
  186       -4.525308   0.995067
  187       -4.522674   0.995066
  188       -4.521581   0.995069
  189       -4.517444   0.995097
  190       -4.514368   0.995138
  191       -4.504860   0.995382
  192       -4.495539   0.995823
  193       -4.493077   0.995978
  194       -4.481779   0.996916
  195       -4.477883   0.997335
  196       -4.475547   0.997612
  197       -4.469664   0.998396
  198       -4.460795   0.999830
  199       -4.458808   1.000195
  200       -4.456795   1.000582
  201       -4.450901   1.001815
  202       -4.445437   1.003093
  203       -4.441041   1.004220
  204       -4.437703   1.005134
  205       -4.432107   1.006781
  206       -4.429356   1.007643
  207       -4.427296   1.008310
  208       -4.421910   1.010147
  209       -4.418740   1.011287
  210       -4.411715   1.013966
  211       -4.408558   1.015235
  212       -4.403071   1.017529
  213       -4.393927   1.021572
  214       -4.390743   1.023035
  215       -4.390292   1.023244
  216       -4.382148   1.027085
  217       -4.378221   1.028967
  218       -4.375778   1.030143
  219       -4.372679   1.031636
  220       -4.370719   1.032578
  221       -4.366621   1.034537
  222       -4.352639   1.040939
  223       -4.342695   1.044974
  224       -4.341675   1.045352
  225       -4.329864   1.049080
  226       -4.320916   1.050907
  227       -4.313106   1.051602
  228       -4.310638   1.051619
  229       -4.309100   1.051577
  230       -4.307038   1.051454
  231       -4.305033   1.051259
  232       -4.303671   1.051083
  233       -4.301291   1.050686
  234       -4.299354   1.050277
  235       -4.298089   1.049967
  236       -4.296876   1.049638
  237       -4.293616   1.048589
  238       -4.290401   1.047314
  239       -4.288178   1.046286
  240       -4.285432   1.044844
  241       -4.277618   1.039648
  242       -4.274034   1.036692
  243       -4.272118   1.034956
  244       -4.268886   1.031776
  245       -4.265497   1.028090
  246       -4.263735   1.026030
  247       -4.259690   1.020914
  248       -4.255763   1.015421
  249       -4.253726   1.012363
  250       -4.246058   0.999531
  251       -4.240353   0.988594
  252       -4.239176   0.986187
  253       -4.232662   0.971917
  254       -4.230009   0.965642
  255       -4.225056   0.953198
  256       -4.223916   0.950200
  257       -4.219042   0.936811
  258       -4.218504   0.935277
  259       -4.217081   0.931166
  260       -4.216116   0.928330
  261       -4.211953   0.915697
  262       -4.208984   0.906276
  263       -4.208144   0.903551
  264       -4.207776   0.902350
  265       -4.205797   0.895794
  266       -4.197741   0.867594
  267       -4.196704   0.863790
  268       -4.191872   0.845556
  269       -4.189039   0.834482
  270       -4.186889   0.825895
  271       -4.185112   0.818681
  272       -4.178990   0.793029
  273       -4.169744   0.752105
  274       -4.163915   0.725071
  275       -4.160357   0.708151
  276       -4.156480   0.689377
  277       -4.150138   0.657986
  278       -4.146449   0.639391
  279       -4.143751   0.625647
  280       -4.138691   0.599599
  281       -4.132008   0.564759
  282       -4.128314   0.545346
  283       -4.111994   0.459140
  284       -4.106254   0.428980
  285       -4.100817   0.400667
  286       -4.096865   0.380289
  287       -4.088612   0.338474
  288       -4.081116   0.301571
  289       -3.960455  -0.040690
  290       -3.904561  -0.047651
  291       -3.881616  -0.038629
  292       -3.798473  -0.004235
  293       -3.784534  -0.000957
  294       -3.693100   0.004616
  295       -3.477903   0.000106
  296       -3.451960   0.000053
  297       -3.208956   0.000000
  298       -3.044080   0.000000
  299       -3.035618   0.000000
  300       -3.021682   0.000000
  301       -3.008645   0.000000
  302       -2.986978   0.000000
  303       -2.952294   0.000000
  304       -2.909529   0.000000
  305       -2.776901   0.000000
  306       -2.501970   0.000000
  307       -2.494271   0.000000
  308       -2.365827   0.000000
  309       -2.281320   0.000000
  310       -2.143066   0.000000
  311       -2.095879   0.000000
  312       -2.018848   0.000000
  313       -1.959250   0.000000
  314       -1.924000   0.000000
  315       -1.864081   0.000000
  316       -1.832085   0.000000
  317       -1.784432   0.000000
  318       -1.759928   0.000000
  319       -1.666086   0.000000
  320       -1.610238   0.000000
  321       -1.560703   0.000000
  322       -1.505962   0.000000
  323       -1.419138   0.000000
  324       -1.383199   0.000000
  325       -1.237291   0.000000
  326       -1.178990   0.000000
  327       -1.101445   0.000000
  328       -1.006668   0.000000
  329       -0.951911   0.000000
  330       -0.950545   0.000000
  331       -0.907941   0.000000
  332       -0.892917   0.000000
  333       -0.853301   0.000000
  334       -0.796417   0.000000
  335       -0.746278   0.000000
  336       -0.615718   0.000000
