   57   57    1    1
  0.4736842E+03  0.3000000E-08  0.3000000E-08  0.3000000E-08  0.5000000E-15
  1.000000000000000E-004
  CAR 
 6_Pd100_top_free_z(O)                   
    560      1    336
 
  0.0000000E+00  0.0000000E+00  0.0000000E+00  0.1000000E+01
    1      -28.614656   1.000000
    2      -13.324351   1.000000
    3      -11.105081   1.000000
    4      -11.007362   1.000000
    5      -10.097800   1.000000
    6       -6.638967   1.000000
    7       -6.133446   1.000000
    8       -6.123958   1.000000
    9       -6.117894   1.000000
   10       -5.845463   1.000000
   11       -5.817363   1.000000
   12       -5.805823   1.000000
   13       -5.763367   1.000000
   14       -5.734365   1.000000
   15       -5.715681   1.000000
   16       -5.685642   1.000000
   17       -5.678734   1.000000
   18       -5.678174   1.000000
   19       -5.677278   1.000000
   20       -5.618106   1.000000
   21       -5.605331   1.000000
   22       -5.601993   1.000000
   23       -5.592366   1.000000
   24       -5.588381   1.000000
   25       -5.585088   1.000000
   26       -5.560930   1.000000
   27       -5.548011   1.000000
   28       -5.533978   1.000000
   29       -5.528271   1.000000
   30       -5.523344   1.000000
   31       -5.518696   1.000000
   32       -5.513764   1.000000
   33       -5.513305   1.000000
   34       -5.510225   1.000000
   35       -5.506469   1.000000
   36       -5.501414   1.000000
   37       -5.489795   1.000000
   38       -5.478222   1.000000
   39       -5.474130   1.000000
   40       -5.472020   1.000000
   41       -5.466048   1.000000
   42       -5.460891   1.000000
   43       -5.459757   1.000000
   44       -5.458778   1.000000
   45       -5.455754   1.000000
   46       -5.448112   1.000000
   47       -5.441816   1.000000
   48       -5.428066   1.000000
   49       -5.421996   1.000000
   50       -5.421344   1.000000
   51       -5.418415   1.000000
   52       -5.405724   1.000000
   53       -5.399885   1.000000
   54       -5.397507   1.000000
   55       -5.388371   1.000000
   56       -5.369270   1.000000
   57       -5.354524   1.000000
   58       -5.330193   1.000000
   59       -5.325040   1.000000
   60       -5.316446   1.000000
   61       -5.313271   1.000000
   62       -5.307913   1.000000
   63       -5.306773   1.000000
   64       -5.304285   1.000000
   65       -5.301241   1.000000
   66       -5.291148   1.000000
   67       -5.289469   1.000000
   68       -5.268838   1.000000
   69       -5.247048   1.000000
   70       -5.231266   1.000000
   71       -5.220275   1.000000
   72       -5.181413   1.000000
   73       -5.177078   1.000000
   74       -5.173691   1.000000
   75       -5.173344   1.000000
   76       -5.172696   1.000000
   77       -5.171131   1.000000
   78       -5.164381   1.000000
   79       -5.162711   1.000000
   80       -5.143748   1.000000
   81       -5.141401   1.000000
   82       -5.131360   1.000000
   83       -5.123133   1.000000
   84       -5.118249   1.000000
   85       -5.115292   1.000000
   86       -5.102833   1.000000
   87       -5.097225   1.000000
   88       -5.093602   1.000000
   89       -5.078635   1.000000
   90       -5.064854   1.000000
   91       -5.053064   1.000000
   92       -5.051462   1.000000
   93       -5.050975   1.000000
   94       -5.047988   1.000000
   95       -5.042810   1.000000
   96       -5.042577   1.000000
   97       -5.039592   1.000000
   98       -5.036113   1.000000
   99       -5.022275   1.000000
  100       -5.015486   1.000000
  101       -5.010272   1.000000
  102       -5.001906   1.000000
  103       -5.000028   1.000000
  104       -4.996585   1.000000
  105       -4.996360   1.000000
  106       -4.990471   1.000000
  107       -4.987561   1.000000
  108       -4.982815   1.000000
  109       -4.981074   1.000000
  110       -4.974367   1.000000
  111       -4.973961   1.000000
  112       -4.971396   1.000000
  113       -4.962591   1.000000
  114       -4.959694   1.000000
  115       -4.949398   0.999999
  116       -4.947121   0.999999
  117       -4.941469   0.999999
  118       -4.930884   0.999999
  119       -4.930024   0.999999
  120       -4.912897   0.999998
  121       -4.912134   0.999998
  122       -4.905990   0.999997
  123       -4.905754   0.999997
  124       -4.900349   0.999997
  125       -4.895085   0.999996
  126       -4.891119   0.999996
  127       -4.877659   0.999994
  128       -4.860137   0.999989
  129       -4.854294   0.999987
  130       -4.851607   0.999986
  131       -4.837891   0.999978
  132       -4.833982   0.999976
  133       -4.830221   0.999973
  134       -4.825205   0.999969
  135       -4.824332   0.999968
  136       -4.822122   0.999966
  137       -4.803972   0.999943
  138       -4.798114   0.999933
  139       -4.792959   0.999923
  140       -4.782093   0.999897
  141       -4.775865   0.999879
  142       -4.759670   0.999819
  143       -4.754613   0.999795
  144       -4.743047   0.999730
  145       -4.730431   0.999638
  146       -4.729109   0.999627
  147       -4.728062   0.999618
  148       -4.715254   0.999494
  149       -4.709515   0.999429
  150       -4.698135   0.999277
  151       -4.695487   0.999238
  152       -4.689764   0.999146
  153       -4.675352   0.998877
  154       -4.673287   0.998834
  155       -4.670072   0.998764
  156       -4.668523   0.998729
  157       -4.665995   0.998671
  158       -4.664624   0.998639
  159       -4.664080   0.998625
  160       -4.653968   0.998367
  161       -4.647547   0.998187
  162       -4.644465   0.998097
  163       -4.642792   0.998046
  164       -4.642088   0.998025
  165       -4.640617   0.997979
  166       -4.637476   0.997881
  167       -4.634984   0.997800
  168       -4.630059   0.997637
  169       -4.624680   0.997452
  170       -4.622925   0.997390
  171       -4.615370   0.997118
  172       -4.612850   0.997025
  173       -4.607342   0.996820
  174       -4.589335   0.996147
  175       -4.587696   0.996088
  176       -4.586811   0.996056
  177       -4.584494   0.995974
  178       -4.579513   0.995802
  179       -4.577236   0.995727
  180       -4.566313   0.995405
  181       -4.563926   0.995345
  182       -4.556635   0.995193
  183       -4.552541   0.995130
  184       -4.547985   0.995084
  185       -4.543871   0.995066
  186       -4.543571   0.995065
  187       -4.542702   0.995065
  188       -4.540529   0.995069
  189       -4.539790   0.995072
  190       -4.537052   0.995092
  191       -4.506985   0.996363
  192       -4.504318   0.996592
  193       -4.498135   0.997210
  194       -4.496442   0.997402
  195       -4.495164   0.997553
  196       -4.483540   0.999208
  197       -4.479151   0.999971
  198       -4.474969   1.000772
  199       -4.472257   1.001332
  200       -4.469595   1.001912
  201       -4.461265   1.003932
  202       -4.460093   1.004241
  203       -4.455218   1.005595
  204       -4.453430   1.006119
  205       -4.449370   1.007363
  206       -4.444528   1.008944
  207       -4.443005   1.009463
  208       -4.440508   1.010336
  209       -4.436727   1.011710
  210       -4.430561   1.014080
  211       -4.429331   1.014571
  212       -4.409814   1.023064
  213       -4.408300   1.023767
  214       -4.400556   1.027431
  215       -4.397963   1.028675
  216       -4.393882   1.030639
  217       -4.393366   1.030888
  218       -4.391475   1.031798
  219       -4.388711   1.033125
  220       -4.387501   1.033704
  221       -4.380061   1.037213
  222       -4.373559   1.040158
  223       -4.351356   1.048443
  224       -4.344941   1.050031
  225       -4.341500   1.050681
  226       -4.333193   1.051567
  227       -4.330268   1.051624
  228       -4.328112   1.051572
  229       -4.326164   1.051454
  230       -4.324698   1.051319
  231       -4.322760   1.051076
  232       -4.321465   1.050874
  233       -4.319657   1.050533
  234       -4.315603   1.049520
  235       -4.314976   1.049332
  236       -4.311475   1.048113
  237       -4.310811   1.047850
  238       -4.307289   1.046275
  239       -4.306864   1.046064
  240       -4.300304   1.042217
  241       -4.298851   1.041209
  242       -4.291591   1.035272
  243       -4.286716   1.030402
  244       -4.286332   1.029987
  245       -4.284702   1.028173
  246       -4.280361   1.022924
  247       -4.276101   1.017163
  248       -4.273500   1.013341
  249       -4.273219   1.012913
  250       -4.271744   1.010626
  251       -4.257074   0.983605
  252       -4.251854   0.972055
  253       -4.250676   0.969303
  254       -4.246938   0.960223
  255       -4.242991   0.950047
  256       -4.241664   0.946488
  257       -4.240947   0.944538
  258       -4.239558   0.940703
  259       -4.234684   0.926654
  260       -4.234427   0.925890
  261       -4.230495   0.913849
  262       -4.228652   0.907998
  263       -4.225771   0.898597
  264       -4.225380   0.897298
  265       -4.223876   0.892242
  266       -4.213843   0.856365
  267       -4.211557   0.847679
  268       -4.209074   0.838040
  269       -4.207684   0.832545
  270       -4.206465   0.827678
  271       -4.204724   0.820634
  272       -4.192290   0.767502
  273       -4.187361   0.745157
  274       -4.183938   0.729254
  275       -4.178290   0.702373
  276       -4.173766   0.680319
  277       -4.168996   0.656609
  278       -4.165056   0.636719
  279       -4.160142   0.611575
  280       -4.159042   0.605901
  281       -4.158424   0.602704
  282       -4.145141   0.533188
  283       -4.135660   0.483069
  284       -4.121164   0.406962
  285       -4.119869   0.400246
  286       -4.116059   0.380601
  287       -4.109226   0.345894
  288       -4.099585   0.298357
  289       -4.021995   0.019274
  290       -3.963413  -0.049121
  291       -3.895778  -0.036335
  292       -3.815144  -0.003593
  293       -3.811151  -0.002609
  294       -3.784686   0.002182
  295       -3.491501   0.000092
  296       -3.482298   0.000072
  297       -3.355343   0.000001
  298       -3.052652   0.000000
  299       -3.049225   0.000000
  300       -3.028306   0.000000
  301       -3.015134   0.000000
  302       -3.008202   0.000000
  303       -3.000765   0.000000
  304       -2.924110   0.000000
  305       -2.835528   0.000000
  306       -2.569799   0.000000
  307       -2.533582   0.000000
  308       -2.510246   0.000000
  309       -2.219895   0.000000
  310       -2.122762   0.000000
  311       -2.113552   0.000000
  312       -2.105909   0.000000
  313       -2.017793   0.000000
  314       -1.955848   0.000000
  315       -1.935787   0.000000
  316       -1.842555   0.000000
  317       -1.840647   0.000000
  318       -1.746435   0.000000
  319       -1.702500   0.000000
  320       -1.658425   0.000000
  321       -1.632311   0.000000
  322       -1.546104   0.000000
  323       -1.526691   0.000000
  324       -1.433610   0.000000
  325       -1.338113   0.000000
  326       -1.086013   0.000000
  327       -1.065293   0.000000
  328       -1.002991   0.000000
  329       -0.979805   0.000000
  330       -0.944191   0.000000
  331       -0.932687   0.000000
  332       -0.920857   0.000000
  333       -0.903056   0.000000
  334       -0.832287   0.000000
  335       -0.741241   0.000000
  336       -0.593543   0.000000
