 running on    1 total cores
 distrk:  each k-point on    1 cores,    1 groups
 distr:  one band on    1 cores,    1 groups
 using from now: INCAR     
 vasp.5.4.4.18Apr17-6-g9f103f2a35 (build Sep 03 2018 23:53:05) complex          
  
 POSCAR found type information on POSCAR  Pd C  O 
 POSCAR found :  3 types and      57 ions
 scaLAPACK will be used

 ----------------------------------------------------------------------------- 
|                                                                             |
|  ADVICE TO THIS USER RUNNING 'VASP/VAMP'   (HEAR YOUR MASTER'S VOICE ...):  |
|                                                                             |
|      You enforced a specific xc-type in the INCAR file,                     |
|      a different type was found on the POTCAR file                          |
|          I HOPE YOU KNOW, WHAT YOU ARE  DOING                               |
|                                                                             |
 ----------------------------------------------------------------------------- 

 LDA part: xc-table for Pade appr. of Perdew
 POSCAR, INCAR and KPOINTS ok, starting setup
 FFT: planning ...
 WAVECAR not read
 entering main loop
       N       E                     dE             d eps       ncg     rms          rms(c)
DAV:   1     0.438202299927E+04    0.43820E+04   -0.10047E+05   688   0.815E+02
DAV:   2     0.203001488417E+04   -0.23520E+04   -0.21122E+04  1216   0.105E+02
DAV:   3     0.248887819284E+03   -0.17811E+04   -0.16735E+04   984   0.919E+01
DAV:   4    -0.131872326063E+03   -0.38076E+03   -0.32320E+03   832   0.439E+01
DAV:   5    -0.178479667068E+03   -0.46607E+02   -0.38310E+02  1048   0.146E+01    0.139E+01
RMM:   6    -0.177688868107E+03    0.79080E+00   -0.50146E+01   723   0.850E+00    0.204E+01
RMM:   7    -0.179132255725E+03   -0.14434E+01   -0.17802E+01   842   0.422E+00    0.182E+01
RMM:   8    -0.183480839592E+03   -0.43486E+01   -0.64225E+00   758   0.332E+00    0.280E+01
RMM:   9    -0.180942313777E+03    0.25385E+01   -0.41974E+00   731   0.278E+00    0.268E+01
RMM:  10    -0.179089101455E+03    0.18532E+01   -0.20836E+00   739   0.211E+00    0.221E+01
RMM:  11    -0.177511706334E+03    0.15774E+01   -0.14296E+00   736   0.180E+00    0.193E+01
RMM:  12    -0.175876994988E+03    0.16347E+01   -0.12417E+00   713   0.167E+00    0.128E+01
RMM:  13    -0.175602832026E+03    0.27416E+00   -0.83668E-01   725   0.137E+00    0.146E+01
RMM:  14    -0.175581550037E+03    0.21282E-01   -0.68052E-01   720   0.123E+00    0.158E+01
RMM:  15    -0.175541606132E+03    0.39944E-01   -0.12132E+00   707   0.163E+00    0.188E+01
RMM:  16    -0.175188812716E+03    0.35279E+00   -0.98770E-01   711   0.147E+00    0.167E+01
RMM:  17    -0.174605566650E+03    0.58325E+00   -0.69445E-01   711   0.124E+00    0.120E+01
RMM:  18    -0.174391394009E+03    0.21417E+00   -0.57497E-01   709   0.114E+00    0.991E+00
RMM:  19    -0.174361432667E+03    0.29961E-01   -0.38014E-01   708   0.926E-01    0.945E+00
RMM:  20    -0.174388791889E+03   -0.27359E-01   -0.32643E-01   715   0.874E-01    0.105E+01
RMM:  21    -0.174026921245E+03    0.36187E+00   -0.19951E-01   711   0.703E-01    0.633E+00
RMM:  22    -0.173985966917E+03    0.40954E-01   -0.14801E-01   710   0.603E-01    0.735E+00
RMM:  23    -0.173961406442E+03    0.24560E-01   -0.14575E-01   716   0.582E-01    0.648E+00
RMM:  24    -0.173852411341E+03    0.10900E+00   -0.14701E-01   716   0.582E-01    0.467E+00
RMM:  25    -0.173800363539E+03    0.52048E-01   -0.99455E-02   710   0.492E-01    0.402E+00
RMM:  26    -0.173772071875E+03    0.28292E-01   -0.72535E-02   712   0.417E-01    0.354E+00
RMM:  27    -0.173720893244E+03    0.51179E-01   -0.52142E-02   713   0.367E-01    0.263E+00
RMM:  28    -0.173716504848E+03    0.43884E-02   -0.29992E-02   711   0.284E-01    0.241E+00
RMM:  29    -0.173698787784E+03    0.17717E-01   -0.19729E-02   709   0.230E-01    0.190E+00
RMM:  30    -0.173679869258E+03    0.18919E-01   -0.10707E-02   714   0.174E-01    0.125E+00
RMM:  31    -0.173674954462E+03    0.49148E-02   -0.54695E-03   714   0.117E-01    0.935E-01
RMM:  32    -0.173672655446E+03    0.22990E-02   -0.45464E-03   714   0.104E-01    0.920E-01
RMM:  33    -0.173669195110E+03    0.34603E-02   -0.38002E-03   710   0.961E-02    0.632E-01
RMM:  34    -0.173670266010E+03   -0.10709E-02   -0.25147E-03   711   0.807E-02    0.724E-01
RMM:  35    -0.173670632430E+03   -0.36642E-03   -0.23400E-03   704   0.790E-02    0.565E-01
RMM:  36    -0.173671459766E+03   -0.82734E-03   -0.14827E-03   705   0.625E-02    0.543E-01
RMM:  37    -0.173673534322E+03   -0.20746E-02   -0.13787E-03   706   0.578E-02    0.505E-01
RMM:  38    -0.173674188710E+03   -0.65439E-03   -0.85471E-04   699   0.474E-02    0.303E-01
RMM:  39    -0.173676305041E+03   -0.21163E-02   -0.61851E-04   635   0.386E-02    0.340E-01
RMM:  40    -0.173678970074E+03   -0.26650E-02   -0.58300E-04   599   0.372E-02    0.226E-01
RMM:  41    -0.173680411861E+03   -0.14418E-02   -0.34682E-04   472   0.291E-02    0.211E-01
RMM:  42    -0.173683935599E+03   -0.35237E-02   -0.58171E-04   573   0.327E-02    0.214E-01
RMM:  43    -0.173685467209E+03   -0.15316E-02   -0.29242E-04   448   0.243E-02    0.161E-01
RMM:  44    -0.173687751131E+03   -0.22839E-02   -0.31735E-04   456   0.232E-02    0.166E-01
RMM:  45    -0.173689794050E+03   -0.20429E-02   -0.32874E-04   464   0.227E-02    0.830E-02
RMM:  46    -0.173690664630E+03   -0.87058E-03   -0.13800E-04   426   0.154E-02    0.781E-02
RMM:  47    -0.173692674026E+03   -0.20094E-02   -0.17256E-04   426   0.156E-02    0.844E-02
RMM:  48    -0.173693168659E+03   -0.49463E-03   -0.70823E-05   418   0.105E-02    0.547E-02
RMM:  49    -0.173694144252E+03   -0.97559E-03   -0.60688E-05   414   0.936E-03    0.463E-02
RMM:  50    -0.173694807217E+03   -0.66296E-03   -0.41339E-05   411   0.782E-03    0.333E-02
RMM:  51    -0.173695294935E+03   -0.48772E-03   -0.25193E-05   397   0.634E-03    0.354E-02
RMM:  52    -0.173696035316E+03   -0.74038E-03   -0.27266E-05   398   0.638E-03    0.213E-02
RMM:  53    -0.173696242733E+03   -0.20742E-03   -0.66265E-06   183   0.395E-03    0.180E-02
RMM:  54    -0.173696708926E+03   -0.46619E-03   -0.11515E-05   246   0.452E-03    0.176E-02
RMM:  55    -0.173696885542E+03   -0.17662E-03   -0.41027E-06   148   0.380E-03    0.111E-02
RMM:  56    -0.173697137923E+03   -0.25238E-03   -0.92964E-06   228   0.434E-03    0.145E-02
RMM:  57    -0.173697315740E+03   -0.17782E-03   -0.57457E-06   170   0.377E-03    0.583E-03
RMM:  58    -0.173697509011E+03   -0.19327E-03   -0.11915E-05   213   0.403E-03    0.919E-03
RMM:  59    -0.173697654584E+03   -0.14557E-03   -0.47297E-06   147   0.366E-03    0.464E-03
RMM:  60    -0.173697733491E+03   -0.78907E-04   -0.57929E-06   145   0.374E-03
   1 F= -.17369773E+03 E0= -.17367481E+03  d E =-.917045E-01
================================= SLURM INFO ===================================
Command: run-cluster -n 1 -m 10000 -j 000406_vasp --same-node /opt/VASP/vasp
Exit code: 0
Job name: 000406_vasp
Job time: 0 days 5h:6m:40s
MPI task count: 1
Working dir: /home/pashkov/pyFitIt/pyfitit/data/adaptive_pd_co_new_2/sample/000406
Job was running on nodes: h13
Task per node: 1
       JobID     MaxRSS  MaxDiskRead MaxDiskWrite    Elapsed    JobName 
------------ ---------- ------------ ------------ ---------- ---------- 
106956                                              05:06:40 000406_va+ 
106956.batch                                        05:06:40      batch 
