  57  57   0   0
  0.4736842E+03  0.3000000E-08  0.3000000E-08  0.3000000E-08  0.5000000E-15
  1.000000000000000E-004
  CAR 
 6_Pd100_top_free_z(O)                   
      1.30223760    -30.40760436  301     -4.14136452      1.00000000
    -30.408  0.0000E+00  0.0000E+00
    -30.302  0.0000E+00  0.0000E+00
    -30.196  0.0000E+00  0.0000E+00
    -30.091  0.2689E-27  0.2843E-28
    -29.985  0.1211E-23  0.1281E-24
    -29.879  0.3074E-20  0.3250E-21
    -29.773  0.4382E-17  0.4635E-18
    -29.668  0.3498E-14  0.3702E-15
    -29.562  0.1559E-11  0.1652E-12
    -29.456  0.3845E-09  0.4080E-10
    -29.351  0.5202E-07  0.5540E-08
    -29.245  0.3808E-05  0.4081E-06
    -29.139  0.1473E-03  0.1597E-04
    -29.034  0.2872E-02  0.3196E-03
    -28.928  0.2533E-01  0.2997E-02
    -28.822  0.6358E-01  0.9718E-02
    -28.716 -0.2415E+00 -0.1581E-01
    -28.611 -0.8079E+00 -0.1012E+00
    -28.505  0.2257E+01  0.1373E+00
    -28.399  0.8990E+01  0.1088E+01
    -28.294  0.8147E+01  0.1949E+01
    -28.188  0.1359E+01  0.2092E+01
    -28.082 -0.8134E+00  0.2006E+01
    -27.977 -0.1451E+00  0.1991E+01
    -27.871  0.6393E-01  0.1998E+01
    -27.765  0.1915E-01  0.2000E+01
    -27.659  0.1892E-02  0.2000E+01
    -27.554  0.8670E-04  0.2000E+01
    -27.448  0.2024E-05  0.2000E+01
    -27.342  0.2508E-07  0.2000E+01
    -27.237  0.1686E-09  0.2000E+01
    -27.131  0.6218E-12  0.2000E+01
    -27.025  0.2101E-14  0.2000E+01
    -26.920  0.0000E+00  0.2000E+01
    -26.814  0.0000E+00  0.2000E+01
    -26.708  0.0000E+00  0.2000E+01
    -26.602  0.0000E+00  0.2000E+01
    -26.497  0.0000E+00  0.2000E+01
    -26.391  0.0000E+00  0.2000E+01
    -26.285  0.0000E+00  0.2000E+01
    -26.180  0.0000E+00  0.2000E+01
    -26.074  0.0000E+00  0.2000E+01
    -25.968  0.0000E+00  0.2000E+01
    -25.863  0.0000E+00  0.2000E+01
    -25.757  0.0000E+00  0.2000E+01
    -25.651  0.0000E+00  0.2000E+01
    -25.545  0.0000E+00  0.2000E+01
    -25.440  0.0000E+00  0.2000E+01
    -25.334  0.0000E+00  0.2000E+01
    -25.228  0.0000E+00  0.2000E+01
    -25.123  0.0000E+00  0.2000E+01
    -25.017  0.0000E+00  0.2000E+01
    -24.911  0.0000E+00  0.2000E+01
    -24.806  0.0000E+00  0.2000E+01
    -24.700  0.0000E+00  0.2000E+01
    -24.594  0.0000E+00  0.2000E+01
    -24.488  0.0000E+00  0.2000E+01
    -24.383  0.0000E+00  0.2000E+01
    -24.277  0.0000E+00  0.2000E+01
    -24.171  0.0000E+00  0.2000E+01
    -24.066  0.0000E+00  0.2000E+01
    -23.960  0.0000E+00  0.2000E+01
    -23.854  0.0000E+00  0.2000E+01
    -23.749  0.0000E+00  0.2000E+01
    -23.643  0.0000E+00  0.2000E+01
    -23.537  0.0000E+00  0.2000E+01
    -23.431  0.0000E+00  0.2000E+01
    -23.326  0.0000E+00  0.2000E+01
    -23.220  0.0000E+00  0.2000E+01
    -23.114  0.0000E+00  0.2000E+01
    -23.009  0.0000E+00  0.2000E+01
    -22.903  0.0000E+00  0.2000E+01
    -22.797  0.0000E+00  0.2000E+01
    -22.692  0.0000E+00  0.2000E+01
    -22.586  0.0000E+00  0.2000E+01
    -22.480  0.0000E+00  0.2000E+01
    -22.374  0.0000E+00  0.2000E+01
    -22.269  0.0000E+00  0.2000E+01
    -22.163  0.0000E+00  0.2000E+01
    -22.057  0.0000E+00  0.2000E+01
    -21.952  0.0000E+00  0.2000E+01
    -21.846  0.0000E+00  0.2000E+01
    -21.740  0.0000E+00  0.2000E+01
    -21.635  0.0000E+00  0.2000E+01
    -21.529  0.0000E+00  0.2000E+01
    -21.423  0.0000E+00  0.2000E+01
    -21.317  0.0000E+00  0.2000E+01
    -21.212  0.0000E+00  0.2000E+01
    -21.106  0.0000E+00  0.2000E+01
    -21.000  0.0000E+00  0.2000E+01
    -20.895  0.0000E+00  0.2000E+01
    -20.789  0.0000E+00  0.2000E+01
    -20.683  0.0000E+00  0.2000E+01
    -20.578  0.0000E+00  0.2000E+01
    -20.472  0.0000E+00  0.2000E+01
    -20.366  0.0000E+00  0.2000E+01
    -20.260  0.0000E+00  0.2000E+01
    -20.155  0.0000E+00  0.2000E+01
    -20.049  0.0000E+00  0.2000E+01
    -19.943  0.0000E+00  0.2000E+01
    -19.838  0.0000E+00  0.2000E+01
    -19.732  0.0000E+00  0.2000E+01
    -19.626  0.0000E+00  0.2000E+01
    -19.521  0.0000E+00  0.2000E+01
    -19.415  0.0000E+00  0.2000E+01
    -19.309  0.0000E+00  0.2000E+01
    -19.203  0.0000E+00  0.2000E+01
    -19.098  0.0000E+00  0.2000E+01
    -18.992  0.0000E+00  0.2000E+01
    -18.886  0.0000E+00  0.2000E+01
    -18.781  0.0000E+00  0.2000E+01
    -18.675  0.0000E+00  0.2000E+01
    -18.569  0.0000E+00  0.2000E+01
    -18.464  0.0000E+00  0.2000E+01
    -18.358  0.0000E+00  0.2000E+01
    -18.252  0.0000E+00  0.2000E+01
    -18.146  0.0000E+00  0.2000E+01
    -18.041  0.0000E+00  0.2000E+01
    -17.935  0.0000E+00  0.2000E+01
    -17.829  0.0000E+00  0.2000E+01
    -17.724  0.0000E+00  0.2000E+01
    -17.618  0.0000E+00  0.2000E+01
    -17.512  0.0000E+00  0.2000E+01
    -17.407  0.0000E+00  0.2000E+01
    -17.301  0.0000E+00  0.2000E+01
    -17.195  0.0000E+00  0.2000E+01
    -17.089  0.0000E+00  0.2000E+01
    -16.984  0.0000E+00  0.2000E+01
    -16.878  0.0000E+00  0.2000E+01
    -16.772  0.0000E+00  0.2000E+01
    -16.667  0.0000E+00  0.2000E+01
    -16.561  0.0000E+00  0.2000E+01
    -16.455  0.0000E+00  0.2000E+01
    -16.350  0.0000E+00  0.2000E+01
    -16.244  0.0000E+00  0.2000E+01
    -16.138  0.0000E+00  0.2000E+01
    -16.032  0.0000E+00  0.2000E+01
    -15.927  0.0000E+00  0.2000E+01
    -15.821  0.0000E+00  0.2000E+01
    -15.715  0.0000E+00  0.2000E+01
    -15.610  0.0000E+00  0.2000E+01
    -15.504  0.0000E+00  0.2000E+01
    -15.398  0.0000E+00  0.2000E+01
    -15.293  0.0000E+00  0.2000E+01
    -15.187  0.0000E+00  0.2000E+01
    -15.081  0.0000E+00  0.2000E+01
    -14.975  0.0000E+00  0.2000E+01
    -14.870  0.3320E-27  0.2000E+01
    -14.764  0.1475E-23  0.2000E+01
    -14.658  0.3690E-20  0.2000E+01
    -14.553  0.5188E-17  0.2000E+01
    -14.447  0.4083E-14  0.2000E+01
    -14.341  0.1794E-11  0.2000E+01
    -14.236  0.4361E-09  0.2000E+01
    -14.130  0.5815E-07  0.2000E+01
    -14.024  0.4193E-05  0.2000E+01
    -13.918  0.1596E-03  0.2000E+01
    -13.813  0.3059E-02  0.2000E+01
    -13.707  0.2639E-01  0.2003E+01
    -13.601  0.6293E-01  0.2010E+01
    -13.496 -0.2581E+00  0.1983E+01
    -13.390 -0.7994E+00  0.1898E+01
    -13.284  0.2408E+01  0.2153E+01
    -13.179  0.9101E+01  0.3115E+01
    -13.073  0.8000E+01  0.3960E+01
    -12.967  0.1234E+01  0.4090E+01
    -12.861 -0.8077E+00  0.4005E+01
    -12.756 -0.1319E+00  0.3991E+01
    -12.650  0.6349E-01  0.3998E+01
    -12.544  0.1830E-01  0.4000E+01
    -12.439  0.1771E-02  0.4000E+01
    -12.333  0.7978E-04  0.4000E+01
    -12.227  0.1833E-05  0.4000E+01
    -12.122  0.2387E-07  0.4000E+01
    -12.016  0.1725E-06  0.4000E+01
    -11.910  0.1069E-04  0.4000E+01
    -11.804  0.3468E-03  0.4000E+01
    -11.699  0.5572E-02  0.4001E+01
    -11.593  0.3836E-01  0.4005E+01
    -11.487  0.4807E-01  0.4010E+01
    -11.382 -0.4101E+00  0.3966E+01
    -11.276 -0.5163E+00  0.3912E+01
    -11.170  0.3728E+01  0.4306E+01
    -11.065  0.9131E+01  0.5271E+01
    -10.959  0.9373E+01  0.6262E+01
    -10.853  0.9672E+01  0.7284E+01
    -10.748  0.6723E+01  0.7995E+01
    -10.642  0.7665E+00  0.8076E+01
    -10.536 -0.7110E+00  0.8001E+01
    -10.430 -0.2903E-01  0.7997E+01
    -10.325  0.7976E-01  0.8006E+01
    -10.219 -0.5467E+00  0.7948E+01
    -10.113 -0.2790E+00  0.7919E+01
    -10.008  0.5157E+01  0.8464E+01
     -9.902  0.1002E+02  0.9523E+01
     -9.796  0.5259E+01  0.1008E+02
     -9.691 -0.2468E+00  0.1005E+02
     -9.585 -0.5730E+00  0.9993E+01
     -9.479  0.1484E-01  0.9994E+01
     -9.373  0.4691E-01  0.9999E+01
     -9.268  0.8135E-02  0.1000E+02
     -9.162  0.5740E-03  0.1000E+02
     -9.056  0.1975E-04  0.1000E+02
     -8.951  0.3533E-06  0.1000E+02
     -8.845  0.3390E-08  0.1000E+02
     -8.739  0.1776E-10  0.1000E+02
     -8.634  0.5042E-13  0.1000E+02
     -8.528  0.0000E+00  0.1000E+02
     -8.422  0.0000E+00  0.1000E+02
     -8.316  0.4200E-27  0.1000E+02
     -8.211  0.1837E-23  0.1000E+02
     -8.105  0.4525E-20  0.1000E+02
     -7.999  0.6263E-17  0.1000E+02
     -7.894  0.4853E-14  0.1000E+02
     -7.788  0.2099E-11  0.1000E+02
     -7.682  0.5019E-09  0.1000E+02
     -7.577  0.6584E-07  0.1000E+02
     -7.471  0.4668E-05  0.1000E+02
     -7.365  0.1745E-03  0.1000E+02
     -7.259  0.3279E-02  0.1000E+02
     -7.154  0.2760E-01  0.1000E+02
     -7.048  0.6197E-01  0.1001E+02
     -6.942 -0.2770E+00  0.9981E+01
     -6.837 -0.7864E+00  0.9897E+01
     -6.731  0.2595E+01  0.1017E+02
     -6.625  0.9323E+01  0.1116E+02
     -6.520  0.7986E+01  0.1200E+02
     -6.414 -0.4080E-01  0.1200E+02
     -6.308 -0.2599E+01  0.1172E+02
     -6.202  0.1100E+02  0.1289E+02
     -6.097  0.2830E+02  0.1588E+02
     -5.991  0.1757E+02  0.1773E+02
     -5.885  0.9946E+01  0.1878E+02
     -5.780  0.4265E+02  0.2329E+02
     -5.674  0.1003E+03  0.3390E+02
     -5.568  0.1900E+03  0.5398E+02
     -5.463  0.2819E+03  0.8378E+02
     -5.357  0.2775E+03  0.1131E+03
     -5.251  0.2139E+03  0.1357E+03
     -5.145  0.2274E+03  0.1598E+03
     -5.040  0.3226E+03  0.1939E+03
     -4.934  0.3689E+03  0.2329E+03
     -4.828  0.3141E+03  0.2661E+03
     -4.723  0.3004E+03  0.2978E+03
     -4.617  0.3832E+03  0.3383E+03
     -4.511  0.4232E+03  0.3831E+03
     -4.406  0.4307E+03  0.4286E+03
     -4.300  0.5168E+03  0.4832E+03
     -4.194  0.5331E+03  0.5395E+03
     -4.088  0.3138E+03  0.5727E+03
     -3.983  0.7509E+02  0.5806E+03
     -3.877  0.1557E+02  0.5823E+03
     -3.771  0.3155E+02  0.5856E+03
     -3.666  0.2039E+02  0.5878E+03
     -3.560  0.9308E+01  0.5888E+03
     -3.454  0.1916E+02  0.5908E+03
     -3.349  0.1925E+02  0.5928E+03
     -3.243  0.5302E+01  0.5934E+03
     -3.137  0.1156E+02  0.5946E+03
     -3.031  0.5097E+02  0.6000E+03
     -2.926  0.6211E+02  0.6066E+03
     -2.820  0.2818E+02  0.6095E+03
     -2.714  0.3307E+01  0.6099E+03
     -2.609  0.8750E+01  0.6108E+03
     -2.503  0.2639E+02  0.6136E+03
     -2.397  0.1997E+02  0.6157E+03
     -2.292  0.4081E+01  0.6161E+03
     -2.186  0.1739E+02  0.6180E+03
     -2.080  0.4205E+02  0.6224E+03
     -1.974  0.4518E+02  0.6272E+03
     -1.869  0.3690E+02  0.6311E+03
     -1.763  0.3370E+02  0.6347E+03
     -1.657  0.3865E+02  0.6387E+03
     -1.552  0.4234E+02  0.6432E+03
     -1.446  0.3264E+02  0.6467E+03
     -1.340  0.1912E+02  0.6487E+03
     -1.235  0.8198E+01  0.6496E+03
     -1.129  0.9658E+01  0.6506E+03
     -1.023  0.4200E+02  0.6550E+03
     -0.917  0.7449E+02  0.6629E+03
     -0.812  0.5777E+02  0.6690E+03
     -0.706  0.2194E+02  0.6713E+03
     -0.600  0.6163E+01  0.6720E+03
     -0.495  0.8182E+00  0.6721E+03
     -0.389 -0.6114E+00  0.6720E+03
     -0.283 -0.6480E-01  0.6720E+03
     -0.178  0.9740E-01  0.6720E+03
     -0.072  0.2827E-01  0.6720E+03
      0.034  0.3003E-02  0.6720E+03
      0.140  0.1503E-03  0.6720E+03
      0.245  0.3847E-05  0.6720E+03
      0.351  0.5229E-07  0.6720E+03
      0.457  0.3855E-09  0.6720E+03
      0.562  0.1561E-11  0.6720E+03
      0.668  0.4201E-14  0.6720E+03
      0.774  0.0000E+00  0.6720E+03
      0.879  0.0000E+00  0.6720E+03
      0.985  0.0000E+00  0.6720E+03
      1.091  0.0000E+00  0.6720E+03
      1.197  0.0000E+00  0.6720E+03
      1.302  0.0000E+00  0.6720E+03
