 vasp.5.4.4.18Apr17-6-g9f103f2a35 (build Sep 03 2018 23:53:05) complex          
  
 executed on             LinuxIFC date 2021.11.27  05:19:05
 running on    1 total cores
 distrk:  each k-point on    1 cores,    1 groups
 distr:  one band on NCORES_PER_BAND=   1 cores,    1 groups


--------------------------------------------------------------------------------------------------------


 INCAR:
 POTCAR:    PAW_PBE Pd 04Jan2005                  
 POTCAR:    PAW_PBE C 08Apr2002                   
 POTCAR:    PAW_PBE O 08Apr2002                   
 POTCAR:    PAW_PBE Pd 04Jan2005                  
   VRHFIN =Pd : s1 d9                                                           
   LEXCH  = PE                                                                  
   EATOM  =   809.7530 eV,   59.5152 Ry                                         
                                                                                
   TITEL  = PAW_PBE Pd 04Jan2005                                                
   LULTRA =        F    use ultrasoft PP ?                                      
   IUNSCR =        1    unscreen: 0-lin 1-nonlin 2-no                           
   RPACOR =    2.000    partial core radius                                     
   POMASS =  106.420; ZVAL   =   10.000    mass and valenz                      
   RCORE  =    2.600    outmost cutoff radius                                   
   RWIGS  =    2.710; RWIGS  =    1.434    wigner-seitz radius (au A)           
   ENMAX  =  250.925; ENMIN  =  188.194 eV                                      
   ICORE  =        3    local potential                                         
   LCOR   =        T    correct aug charges                                     
   LPAW   =        T    paw PP                                                  
   EAUG   =  416.230                                                            
   DEXC   =    0.000                                                            
   RMAX   =    2.653    core radius for proj-oper                               
   RAUG   =    1.300    factor for augmentation sphere                          
   RDEP   =    2.734    radius for radial grids                                 
   RDEPT  =    2.103    core radius for aug-charge                              
                                                                                
   Atomic configuration                                                         
   12 entries                                                                   
     n  l   j            E        occ.                                          
     1  0  0.50    -24164.6631   2.0000                                         
     2  0  0.50     -3530.9218   2.0000                                         
     2  1  1.50     -3165.6822   6.0000                                         
     3  0  0.50      -639.4577   2.0000                                         
     3  1  1.50      -519.4532   6.0000                                         
     3  2  2.50      -328.9757  10.0000                                         
     4  0  0.50       -88.7014   2.0000                                         
     4  1  1.50       -54.4540   6.0000                                         
     4  2  2.50        -6.6878   9.0000                                         
     5  0  0.50        -4.3543   1.0000                                         
     5  1  0.50        -1.3606   0.0000                                         
     4  3  2.50        -1.3606   0.0000                                         
   Description                                                                  
     l       E           TYP  RCUT    TYP  RCUT                                 
     2     -6.6878251     23  2.400                                             
     2     -8.0484077     23  2.400                                             
     0     -4.3542939     23  2.400                                             
     0      4.3406793     23  2.400                                             
     1     -4.0817478     23  2.600                                             
     1     15.8380318     23  2.600                                             
     3     -4.0817478     23  2.400                                             
  local pseudopotential read in
  partial core-charges read in
  partial kinetic energy density read in
  atomic valenz-charges read in
  non local Contribution for L=           2  read in
    real space projection operators read in
  non local Contribution for L=           2  read in
    real space projection operators read in
  non local Contribution for L=           0  read in
    real space projection operators read in
  non local Contribution for L=           0  read in
    real space projection operators read in
  non local Contribution for L=           1  read in
    real space projection operators read in
  non local Contribution for L=           1  read in
    real space projection operators read in
    PAW grid and wavefunctions read in
 
   number of l-projection  operators is LMAX  =           6
   number of lm-projection operators is LMMAX =          18
 
 POTCAR:    PAW_PBE C 08Apr2002                   
   VRHFIN =C: s2p2                                                              
   LEXCH  = PE                                                                  
   EATOM  =   147.1560 eV,   10.8157 Ry                                         
                                                                                
   TITEL  = PAW_PBE C 08Apr2002                                                 
   LULTRA =        F    use ultrasoft PP ?                                      
   IUNSCR =        1    unscreen: 0-lin 1-nonlin 2-no                           
   RPACOR =    1.200    partial core radius                                     
   POMASS =   12.011; ZVAL   =    4.000    mass and valenz                      
   RCORE  =    1.500    outmost cutoff radius                                   
   RWIGS  =    1.630; RWIGS  =    0.863    wigner-seitz radius (au A)           
   ENMAX  =  400.000; ENMIN  =  300.000 eV                                      
   ICORE  =        2    local potential                                         
   LCOR   =        T    correct aug charges                                     
   LPAW   =        T    paw PP                                                  
   EAUG   =  644.873                                                            
   DEXC   =    0.000                                                            
   RMAX   =    1.529    core radius for proj-oper                               
   RAUG   =    1.300    factor for augmentation sphere                          
   RDEP   =    1.501    radius for radial grids                                 
   RDEPT  =    1.300    core radius for aug-charge                              
                                                                                
   Atomic configuration                                                         
    4 entries                                                                   
     n  l   j            E        occ.                                          
     1  0  0.50      -273.3789   2.0000                                         
     2  0  0.50       -13.7508   2.0000                                         
     2  1  0.50        -5.2854   2.0000                                         
     3  2  1.50        -5.4423   0.0000                                         
   Description                                                                  
     l       E           TYP  RCUT    TYP  RCUT                                 
     0    -13.7508458     23  1.200                                             
     0     -8.2022199     23  1.200                                             
     1     -5.2854383     23  1.500                                             
     1     34.0145650     23  1.500                                             
     2     -5.4423304      7  1.500                                             
  local pseudopotential read in
  partial core-charges read in
  partial kinetic energy density read in
  atomic valenz-charges read in
  non local Contribution for L=           0  read in
    real space projection operators read in
  non local Contribution for L=           0  read in
    real space projection operators read in
  non local Contribution for L=           1  read in
    real space projection operators read in
  non local Contribution for L=           1  read in
    real space projection operators read in
    PAW grid and wavefunctions read in
 
   number of l-projection  operators is LMAX  =           4
   number of lm-projection operators is LMMAX =           8
 
 POTCAR:    PAW_PBE O 08Apr2002                   
   VRHFIN =O: s2p4                                                              
   LEXCH  = PE                                                                  
   EATOM  =   432.3788 eV,   31.7789 Ry                                         
                                                                                
   TITEL  = PAW_PBE O 08Apr2002                                                 
   LULTRA =        F    use ultrasoft PP ?                                      
   IUNSCR =        1    unscreen: 0-lin 1-nonlin 2-no                           
   RPACOR =    1.200    partial core radius                                     
   POMASS =   16.000; ZVAL   =    6.000    mass and valenz                      
   RCORE  =    1.520    outmost cutoff radius                                   
   RWIGS  =    1.550; RWIGS  =    0.820    wigner-seitz radius (au A)           
   ENMAX  =  400.000; ENMIN  =  300.000 eV                                      
   ICORE  =        2    local potential                                         
   LCOR   =        T    correct aug charges                                     
   LPAW   =        T    paw PP                                                  
   EAUG   =  605.392                                                            
   DEXC   =    0.000                                                            
   RMAX   =    1.553    core radius for proj-oper                               
   RAUG   =    1.300    factor for augmentation sphere                          
   RDEP   =    1.550    radius for radial grids                                 
   RDEPT  =    1.329    core radius for aug-charge                              
                                                                                
   Atomic configuration                                                         
    4 entries                                                                   
     n  l   j            E        occ.                                          
     1  0  0.50      -514.6923   2.0000                                         
     2  0  0.50       -23.9615   2.0000                                         
     2  1  0.50        -9.0305   4.0000                                         
     3  2  1.50        -9.5241   0.0000                                         
   Description                                                                  
     l       E           TYP  RCUT    TYP  RCUT                                 
     0    -23.9615318     23  1.200                                             
     0     -9.5240782     23  1.200                                             
     1     -9.0304911     23  1.520                                             
     1      8.1634956     23  1.520                                             
     2     -9.5240782      7  1.500                                             
  local pseudopotential read in
  partial core-charges read in
  partial kinetic energy density read in
  kinetic energy density of atom read in
  atomic valenz-charges read in
  non local Contribution for L=           0  read in
    real space projection operators read in
  non local Contribution for L=           0  read in
    real space projection operators read in
  non local Contribution for L=           1  read in
    real space projection operators read in
  non local Contribution for L=           1  read in
    real space projection operators read in
    PAW grid and wavefunctions read in
 
   number of l-projection  operators is LMAX  =           4
   number of lm-projection operators is LMMAX =           8
 
 Optimization of the real space projectors (new method)

 maximal supplied QI-value         = 14.36
 optimisation between [QCUT,QGAM] = [ 10.20, 20.39] = [ 29.12,116.47] Ry 
 Optimized for a Real-space Cutoff    1.51 Angstroem

   l    n(q)    QCUT    max X(q) W(low)/X(q) W(high)/X(q)  e(spline) 
   2      8    10.197    59.108    0.26E-03    0.14E-03    0.96E-07
   2      8    10.197    58.101    0.27E-03    0.14E-03    0.98E-07
   0      9    10.197   102.235    0.54E-04    0.60E-05    0.72E-07
   0      9    10.197    58.388    0.52E-04    0.60E-05    0.68E-07
   1      9    10.197    22.191    0.18E-03    0.25E-03    0.79E-07
   1      9    10.197    15.590    0.15E-03    0.21E-03    0.69E-07
 Optimization of the real space projectors (new method)

 maximal supplied QI-value         = 25.13
 optimisation between [QCUT,QGAM] = [ 10.05, 20.36] = [ 28.30,116.06] Ry 
 Optimized for a Real-space Cutoff    1.30 Angstroem

   l    n(q)    QCUT    max X(q) W(low)/X(q) W(high)/X(q)  e(spline) 
   0      8    10.053   115.676    0.49E-03    0.72E-03    0.18E-06
   0      8    10.053    87.132    0.49E-03    0.71E-03    0.18E-06
   1      7    10.053     4.429    0.32E-03    0.31E-03    0.18E-06
   1      7    10.053     2.733    0.23E-03    0.19E-03    0.20E-06
 Optimization of the real space projectors (new method)

 maximal supplied QI-value         = 24.76
 optimisation between [QCUT,QGAM] = [ 10.15, 20.30] = [ 28.85,115.39] Ry 
 Optimized for a Real-space Cutoff    1.38 Angstroem

   l    n(q)    QCUT    max X(q) W(low)/X(q) W(high)/X(q)  e(spline) 
   0      8    10.150    20.381    0.22E-03    0.32E-03    0.29E-06
   0      8    10.150    15.268    0.23E-03    0.35E-03    0.30E-06
   1      8    10.150     5.964    0.46E-03    0.53E-03    0.21E-06
   1      8    10.150     5.382    0.38E-03    0.45E-03    0.19E-06

 ----------------------------------------------------------------------------- 
|                                                                             |
|  ADVICE TO THIS USER RUNNING 'VASP/VAMP'   (HEAR YOUR MASTER'S VOICE ...):  |
|                                                                             |
|      You enforced a specific xc-type in the INCAR file,                     |
|      a different type was found on the POTCAR file                          |
|          I HOPE YOU KNOW, WHAT YOU ARE  DOING                               |
|                                                                             |
 ----------------------------------------------------------------------------- 

  PAW_PBE Pd 04Jan2005                  :
 energy of atom  1       EATOM= -809.7530
 kinetic energy error for atom=    0.0091 (will be added to EATOM!!)
  PAW_PBE C 08Apr2002                   :
 energy of atom  2       EATOM= -147.1560
 kinetic energy error for atom=    0.0288 (will be added to EATOM!!)
  PAW_PBE O 08Apr2002                   :
 energy of atom  3       EATOM= -432.3788
 kinetic energy error for atom=    0.1156 (will be added to EATOM!!)
 
 
 POSCAR: Pd55PES                                 
  positions in cartesian coordinates
  No initial velocities read in
 exchange correlation table for  LEXCH =        9
   RHO(1)=    0.500       N(1)  =     2000
   RHO(2)=  100.500       N(2)  =     4000
 


--------------------------------------------------------------------------------------------------------


 ion  position               nearest neighbor table
   1  0.446  0.328  0.417-   3 3.25   5 3.25   7 3.36  15 3.36  29 3.42  28 3.42
   2  0.672  0.554  0.417-  26 3.25  30 3.25  17 3.36   9 3.36  47 3.42  49 3.42
   3  0.554  0.328  0.417-   1 3.25   5 3.25   7 3.36  11 3.36  29 3.42  21 3.42
   4  0.328  0.554  0.417-  32 3.25  22 3.25  13 3.36   8 3.36  43 3.42  48 3.42
   5  0.500  0.383  0.340-   1 3.25   3 3.25  11 3.36  15 3.36  21 3.42  28 3.42
   6  0.500  0.383  0.660-  24 3.25  19 3.25  16 3.36  12 3.36  42 3.42  44 3.42
   7  0.500  0.276  0.500-  29 3.24   3 3.36   1 3.36  19 3.36  24 3.36
   8  0.276  0.500  0.500-  48 3.24  22 3.36  40 3.36   4 3.36  25 3.36
   9  0.724  0.500  0.500-  49 3.24  26 3.36  45 3.36   2 3.36  20 3.36
  10  0.500  0.724  0.500-  55 3.24  27 3.36  23 3.36  46 3.36  41 3.36
  11  0.612  0.388  0.342-  21 3.24   5 3.36   3 3.36  30 3.36  26 3.36
  12  0.612  0.388  0.658-  42 3.24  24 3.36  45 3.36   6 3.36  31 3.36
  13  0.388  0.612  0.342-  43 3.24  32 3.36  50 3.36   4 3.36  27 3.36
  14  0.388  0.612  0.658-  53 3.24  25 3.36  33 3.36  51 3.36  46 3.36
  15  0.388  0.388  0.342-  28 3.24   5 3.36   1 3.36  32 3.36  22 3.36
  16  0.388  0.388  0.658-  44 3.24  19 3.36  40 3.36   6 3.36  33 3.36
  17  0.612  0.612  0.342-  47 3.24  30 3.36  50 3.36   2 3.36  23 3.36
  18  0.612  0.612  0.658-  54 3.24  31 3.36  20 3.36  51 3.36  41 3.36
  19  0.446  0.328  0.583-   6 3.25  24 3.25  16 3.36   7 3.36  44 3.42  29 3.42
  20  0.672  0.554  0.583-  31 3.25  45 3.25  18 3.36   9 3.36  54 3.42  49 3.42
  21  0.558  0.442  0.418-  11 3.24   5 3.42   3 3.42  30 3.42  26 3.42
  22  0.328  0.446  0.417-   4 3.25  32 3.25   8 3.36  15 3.36  48 3.42  28 3.42
  23  0.554  0.672  0.417-  27 3.25  50 3.25  10 3.36  17 3.36  55 3.42  47 3.42
  24  0.554  0.328  0.583-   6 3.25  19 3.25  12 3.36   7 3.36  42 3.42  29 3.42
  25  0.328  0.554  0.583-  33 3.25  40 3.25  14 3.36   8 3.36  53 3.42  48 3.42
  26  0.672  0.446  0.417-   2 3.25  30 3.25   9 3.36  11 3.36  49 3.42  21 3.42
  27  0.446  0.672  0.417-  23 3.25  50 3.25  10 3.36  13 3.36  55 3.42  43 3.42
  28  0.442  0.442  0.418-  15 3.24   5 3.42   1 3.42  32 3.42  22 3.42
  29  0.500  0.384  0.500-   7 3.24   3 3.42   1 3.42  24 3.42  19 3.42
  30  0.617  0.500  0.340-   2 3.25  26 3.25  17 3.36  11 3.36  47 3.42  21 3.42
  31  0.617  0.500  0.660-  20 3.25  45 3.25  18 3.36  12 3.36  54 3.42  42 3.42
  32  0.383  0.500  0.340-   4 3.25  22 3.25  13 3.36  15 3.36  43 3.42  28 3.42
  33  0.383  0.500  0.660-  56 2.21  25 3.25  40 3.25  14 3.36  16 3.36  53 3.42  44 3.42
  34  0.383  0.383  0.500-
  35  0.617  0.617  0.500-
  36  0.617  0.383  0.500-
  37  0.383  0.617  0.500-
  38  0.500  0.500  0.335-
  39  0.500  0.500  0.665-  56 2.29
  40  0.328  0.446  0.583-  33 3.25  25 3.25  16 3.36   8 3.36  44 3.42  48 3.42
  41  0.554  0.672  0.583-  46 3.25  51 3.25  10 3.36  18 3.36  54 3.42  55 3.42
  42  0.558  0.442  0.582-  12 3.24   6 3.42  24 3.42  31 3.42  45 3.42
  43  0.442  0.558  0.418-  13 3.24   4 3.42  32 3.42  27 3.42  50 3.42
  44  0.442  0.442  0.582-  16 3.24   6 3.42  19 3.42  33 3.42  40 3.42
  45  0.672  0.446  0.583-  20 3.25  31 3.25   9 3.36  12 3.36  49 3.42  42 3.42
  46  0.446  0.672  0.583-  41 3.25  51 3.25  10 3.36  14 3.36  53 3.42  55 3.42
  47  0.558  0.558  0.418-  17 3.24   2 3.42  30 3.42  23 3.42  50 3.42
  48  0.384  0.500  0.500-   8 3.24   4 3.42  22 3.42  25 3.42  40 3.42
  49  0.616  0.500  0.500-   9 3.24   2 3.42  26 3.42  20 3.42  45 3.42
  50  0.500  0.617  0.340-  27 3.25  23 3.25  13 3.36  17 3.36  43 3.42  47 3.42
  51  0.500  0.617  0.660-  41 3.25  46 3.25  14 3.36  18 3.36  53 3.42  54 3.42
  52  0.500  0.500  0.500-
  53  0.442  0.558  0.582-  14 3.24  25 3.42  33 3.42  51 3.42  46 3.42
  54  0.558  0.558  0.582-  18 3.24  31 3.42  20 3.42  51 3.42  41 3.42
  55  0.500  0.616  0.500-  10 3.24  23 3.42  27 3.42  41 3.42  46 3.42
  56  0.438  0.480  0.705-  57 1.13  33 2.21  39 2.29
  57  0.427  0.477  0.740-  56 1.13
 
  LATTYP: Found a simple cubic cell.
 ALAT       =    30.0000000000
  
  Lattice vectors:
  
 A1 = (  30.0000000000,   0.0000000000,   0.0000000000)
 A2 = (   0.0000000000,  30.0000000000,   0.0000000000)
 A3 = (   0.0000000000,   0.0000000000,  30.0000000000)


Analysis of symmetry for initial positions (statically):
=====================================================================
 Subroutine PRICEL returns:
 Original cell was already a primitive cell.
 

 Routine SETGRP: Setting up the symmetry group for a 
 simple cubic supercell.


 Subroutine GETGRP returns: Found  1 space group operations
 (whereof  1 operations were pure point group operations)
 out of a pool of 48 trial point group operations.


The static configuration has the point symmetry C_1 .


Analysis of symmetry for dynamics (positions and initial velocities):
=====================================================================
 Subroutine PRICEL returns:
 Original cell was already a primitive cell.
 

 Routine SETGRP: Setting up the symmetry group for a 
 simple cubic supercell.


 Subroutine GETGRP returns: Found  1 space group operations
 (whereof  1 operations were pure point group operations)
 out of a pool of 48 trial point group operations.


The dynamic configuration has the point symmetry C_1 .


Analysis of constrained symmetry for selective dynamics:
=====================================================================
 Subroutine PRICEL returns:
 Original cell was already a primitive cell.
 

 Routine SETGRP: Setting up the symmetry group for a 
 simple cubic supercell.


 Subroutine GETGRP returns: Found  1 space group operations
 (whereof  1 operations were pure point group operations)
 out of a pool of 48 trial point group operations.


The constrained configuration has the point symmetry C_1 .


 Subroutine INISYM returns: Found  1 space group operations
 (whereof  1 operations are pure point group operations),
 and found     1 'primitive' translations

 
 
 KPOINTS: K-points                                

Automatic generation of k-mesh.
Space group operators:
 irot       det(A)        alpha          n_x          n_y          n_z        tau_x        tau_y        tau_z
    1     1.000000     0.000000     1.000000     0.000000     0.000000     0.000000     0.000000     0.000000
 
 Subroutine IBZKPT returns following result:
 ===========================================
 
 Found      1 irreducible k-points:
 
 Following reciprocal coordinates:
            Coordinates               Weight
  0.000000  0.000000  0.000000      1.000000
 
 Following cartesian coordinates:
            Coordinates               Weight
  0.000000  0.000000  0.000000      1.000000
 


--------------------------------------------------------------------------------------------------------




 Dimension of arrays:
   k-points           NKPTS =      1   k-points in BZ     NKDIM =      1   number of bands    NBANDS=    336
   number of dos      NEDOS =    301   number of ions     NIONS =     57
   non local maximal  LDIM  =      6   non local SUM 2l+1 LMDIM =     18
   total plane-waves  NPLWV = ******
   max r-space proj   IRMAX =   1847   max aug-charges    IRDMAX=   6262
   dimension x,y,z NGX =   150 NGY =  150 NGZ =  150
   dimension x,y,z NGXF=   300 NGYF=  300 NGZF=  300
   support grid    NGXF=   300 NGYF=  300 NGZF=  300
   ions per type =              55   1   1
   NGX,Y,Z   is equivalent  to a cutoff of   8.31,  8.31,  8.31 a.u.
   NGXF,Y,Z  is equivalent  to a cutoff of  16.62, 16.62, 16.62 a.u.

 SYSTEM =  6_Pd100_top_free_z(O)                   
 POSCAR =  Pd55PES                                 

 Startparameter for this run:
   NWRITE =      2    write-flag & timer
   PREC   = normal    normal or accurate (medium, high low for compatibility)
   ISTART =      0    job   : 0-new  1-cont  2-samecut
   ICHARG =      2    charge: 1-file 2-atom 10-const
   ISPIN  =      1    spin polarized calculation?
   LNONCOLLINEAR =      F non collinear calculations
   LSORBIT =      F    spin-orbit coupling
   INIWAV =      1    electr: 0-lowe 1-rand  2-diag
   LASPH  =      F    aspherical Exc in radial PAW
   METAGGA=      F    non-selfconsistent MetaGGA calc.

 Electronic Relaxation 1
   ENCUT  =  400.0 eV  29.40 Ry    5.42 a.u.  48.92 48.92 48.92*2*pi/ulx,y,z
   ENINI  =  400.0     initial cutoff
   ENAUG  =  644.9 eV  augmentation charge cutoff
   NELM   =    100;   NELMIN=  6; NELMDL= -5     # of ELM steps 
   EDIFF  = 0.1E-03   stopping-criterion for ELM
   LREAL  =      T    real-space projection
   NLSPLINE    = F    spline interpolate recip. space projectors
   LCOMPAT=      F    compatible to vasp.4.4
   GGA_COMPAT  = T    GGA compatible to vasp.4.4-vasp.4.6
   LMAXPAW     = -100 max onsite density
   LMAXMIX     =    2 max onsite mixed and CHGCAR
   VOSKOWN=      0    Vosko Wilk Nusair interpolation
   ROPT   =   -0.00050  -0.00050  -0.00050
 Ionic relaxation
   EDIFFG = -.5E-01   stopping-criterion for IOM
   NSW    =      0    number of steps for IOM
   NBLOCK =      1;   KBLOCK =      1    inner block; outer block 
   IBRION =     -1    ionic relax: 0-MD 1-quasi-New 2-CG
   NFREE  =      1    steps in history (QN), initial steepest desc. (CG)
   ISIF   =      2    stress and relaxation
   IWAVPR =     10    prediction:  0-non 1-charg 2-wave 3-comb
   ISYM   =      2    0-nonsym 1-usesym 2-fastsym
   LCORR  =      T    Harris-Foulkes like correction to forces

   POTIM  = 0.5000    time-step for ionic-motion
   TEIN   =    0.0    initial temperature
   TEBEG  =    0.0;   TEEND  =   0.0 temperature during run
   SMASS  =  -3.00    Nose mass-parameter (am)
   estimated Nose-frequenzy (Omega)   =  0.10E-29 period in steps =****** mass=  -0.206E-25a.u.
   SCALEE = 1.0000    scale energy and forces
   NPACO  =    256;   APACO  = 16.0  distance and # of slots for P.C.
   PSTRESS=    0.0 pullay stress

  Mass of Ions in am
   POMASS = 106.42 12.01 16.00
  Ionic Valenz
   ZVAL   =  10.00  4.00  6.00
  Atomic Wigner-Seitz radii
   RWIGS  =  -1.00 -1.00 -1.00
  virtual crystal weights 
   VCA    =   1.00  1.00  1.00
   NELECT =     560.0000    total number of electrons
   NUPDOWN=      -1.0000    fix difference up-down

 DOS related values:
   EMIN   =  10.00;   EMAX   =-10.00  energy-range for DOS
   EFERMI =   0.00
   ISMEAR =     2;   SIGMA  =   0.20  broadening in eV -4-tet -1-fermi 0-gaus

 Electronic relaxation 2 (details)
   IALGO  =     68    algorithm
   LDIAG  =      T    sub-space diagonalisation (order eigenvalues)
   LSUBROT=      F    optimize rotation matrix (better conditioning)
   TURBO    =      0    0=normal 1=particle mesh
   IRESTART =      0    0=no restart 2=restart with 2 vectors
   NREBOOT  =      0    no. of reboots
   NMIN     =      0    reboot dimension
   EREF     =   0.00    reference energy to select bands
   IMIX   =      4    mixing-type and parameters
     AMIX     =   0.40;   BMIX     =  1.00
     AMIX_MAG =   1.60;   BMIX_MAG =  1.00
     AMIN     =   0.10
     WC   =   100.;   INIMIX=   1;  MIXPRE=   1;  MAXMIX= -45

 Intra band minimization:
   WEIMIN = 0.0000     energy-eigenvalue tresh-hold
   EBREAK =  0.74E-07  absolut break condition
   DEPER  =   0.30     relativ break condition  

   TIME   =   0.40     timestep for ELM

  volume/ion in A,a.u.               =     473.68      3196.58
  Fermi-wavevector in a.u.,A,eV,Ry     =   0.449797  0.849992  2.752691  0.202317
  Thomas-Fermi vector in A             =   1.430086
 
 Write flags
   LWAVE        =      F    write WAVECAR
   LDOWNSAMPLE  =      F    k-point downsampling of WAVECAR
   LCHARG       =      F    write CHGCAR
   LVTOT        =      F    write LOCPOT, total local potential
   LVHAR        =      F    write LOCPOT, Hartree potential only
   LELF         =      F    write electronic localiz. function (ELF)
   LORBIT       =      0    0 simple, 1 ext, 2 COOP (PROOUT), +10 PAW based schemes


 Dipole corrections
   LMONO  =      F    monopole corrections only (constant potential shift)
   LDIPOL =      F    correct potential (dipole corrections)
   IDIPOL =      0    1-x, 2-y, 3-z, 4-all directions 
   EPSILON=  1.0000000 bulk dielectric constant

 Exchange correlation treatment:
   GGA     =    RP    GGA type
   LEXCH   =     9    internal setting for exchange type
   VOSKOWN=      0    Vosko Wilk Nusair interpolation
   LHFCALC =     F    Hartree Fock is set to
   LHFONE  =     F    Hartree Fock one center treatment
   AEXX    =    0.0000 exact exchange contribution

 Linear response parameters
   LEPSILON=     F    determine dielectric tensor
   LRPA    =     F    only Hartree local field effects (RPA)
   LNABLA  =     F    use nabla operator in PAW spheres
   LVEL    =     F    velocity operator in full k-point grid
   LINTERFAST=   F  fast interpolation
   KINTER  =     0    interpolate to denser k-point grid
   CSHIFT  =0.1000    complex shift for real part using Kramers Kronig
   OMEGAMAX=  -1.0    maximum frequency
   DEG_THRESHOLD= 0.2000000E-02 threshold for treating states as degnerate
   RTIME   =   -0.100 relaxation time in fs
  (WPLASMAI=    0.000 imaginary part of plasma frequency in eV, 0.658/RTIME)
   DFIELD  = 0.0000000 0.0000000 0.0000000 field for delta impulse in time
 
 Orbital magnetization related:
   ORBITALMAG=     F  switch on orbital magnetization
   LCHIMAG   =     F  perturbation theory with respect to B field
   DQ        =  0.001000  dq finite difference perturbation B field
   LLRAUG    =     F  two centre corrections for induced B field



--------------------------------------------------------------------------------------------------------


 Static calculation
 charge density and potential will be updated during run
 non-spin polarized calculation
 RMM-DIIS sequential band-by-band and
  variant of blocked Davidson during initial phase
 perform sub-space diagonalisation
    before iterative eigenvector-optimisation
 modified Broyden-mixing scheme, WC =      100.0
 initial mixing is a Kerker type mixing with AMIX =  0.4000 and BMIX =      1.0000
 Hartree-type preconditioning will be used
 using additional bands           56
 real space projection scheme for non local part
 use partial core corrections
 calculate Harris-corrections to forces 
   (improved forces if not selfconsistent)
 use gradient corrections 
 use of overlap-Matrix (Vanderbilt PP)
 Methfessel and Paxton  Order N= 2 SIGMA  =   0.20


--------------------------------------------------------------------------------------------------------


  energy-cutoff  :      400.00
  volume of cell :    27000.00
      direct lattice vectors                 reciprocal lattice vectors
    30.000000000  0.000000000  0.000000000     0.033333333  0.000000000  0.000000000
     0.000000000 30.000000000  0.000000000     0.000000000  0.033333333  0.000000000
     0.000000000  0.000000000 30.000000000     0.000000000  0.000000000  0.033333333

  length of vectors
    30.000000000 30.000000000 30.000000000     0.033333333  0.033333333  0.033333333


 
 k-points in units of 2pi/SCALE and weight: K-points                                
   0.00000000  0.00000000  0.00000000       1.000
 
 k-points in reciprocal lattice and weights: K-points                                
   0.00000000  0.00000000  0.00000000       1.000
 
 position of ions in fractional coordinates (direct lattice) 
   0.44576020  0.32826710  0.41691983
   0.67173288  0.55423978  0.41691983
   0.55423980  0.32826710  0.41691983
   0.32826712  0.55423978  0.41691983
   0.50000000  0.38250690  0.34021317
   0.50000000  0.38250690  0.65978680
   0.50000000  0.27609440  0.50000000
   0.27609443  0.49999998  0.50000000
   0.72390557  0.49999998  0.50000000
   0.50000000  0.72390555  0.50000000
   0.61195280  0.38804720  0.34167483
   0.61195280  0.38804720  0.65832513
   0.38804722  0.61195278  0.34167483
   0.38804722  0.61195278  0.65832513
   0.38804720  0.38804720  0.34167483
   0.38804720  0.38804720  0.65832513
   0.61195278  0.61195278  0.34167483
   0.61195278  0.61195278  0.65832513
   0.44576020  0.32826710  0.58308023
   0.67173288  0.55423978  0.58308023
   0.55791699  0.44208301  0.41809300
   0.32826705  0.44576024  0.41691983
   0.55423973  0.67173293  0.41691983
   0.55423980  0.32826710  0.58308023
   0.32826712  0.55423978  0.58308023
   0.67173295  0.44576024  0.41691983
   0.44576027  0.67173293  0.41691983
   0.44208301  0.44208301  0.41809300
   0.50000000  0.38416601  0.50000000
   0.61749315  0.50000005  0.34021317
   0.61749315  0.50000005  0.65978680
   0.38250685  0.50000005  0.34021317
   0.38250685  0.50000005  0.65978680
   0.38317830  0.38317830  0.50000000
   0.61682172  0.61682172  0.50000000
   0.61682170  0.38317830  0.50000000
   0.38317828  0.61682172  0.50000000
   0.50000000  0.50000000  0.33478917
   0.50000000  0.50000000  0.66521087
   0.32826705  0.44576024  0.58308023
   0.55423973  0.67173293  0.58308023
   0.55791699  0.44208301  0.58190703
   0.44208298  0.55791702  0.41809300
   0.44208301  0.44208301  0.58190703
   0.67173295  0.44576024  0.58308023
   0.44576027  0.67173293  0.58308023
   0.55791702  0.55791702  0.41809300
   0.38416599  0.50000002  0.50000000
   0.61583401  0.50000002  0.50000000
   0.50000000  0.61749319  0.34021317
   0.50000000  0.61749319  0.65978680
   0.50000000  0.50000000  0.50000000
   0.44208298  0.55791702  0.58190703
   0.55791702  0.55791702  0.58190703
   0.50000000  0.61583404  0.50000000
   0.43755060  0.48020700  0.70465797
   0.42662350  0.47674370  0.74046807
 
 position of ions in cartesian coordinates  (Angst):
  13.37280588  9.84801292 12.50759500
  20.15198637 16.62719342 12.50759500
  16.62719412  9.84801292 12.50759500
   9.84801363 16.62719342 12.50759500
  15.00000000 11.47520705 10.20639500
  15.00000000 11.47520705 19.79360400
  15.00000000  8.28283206 15.00000000
   8.28283277 14.99999929 15.00000000
  21.71716723 14.99999929 15.00000000
  15.00000000 21.71716652 14.99999999
  18.35858397 11.64141603 10.25024500
  18.35858397 11.64141603 19.74975399
  11.64141674 18.35858326 10.25024500
  11.64141674 18.35858326 19.74975400
  11.64141603 11.64141603 10.25024500
  11.64141603 11.64141603 19.74975400
  18.35858326 18.35858326 10.25024500
  18.35858326 18.35858326 19.74975400
  13.37280588  9.84801291 17.49240700
  20.15198638 16.62719341 17.49240700
  16.73750985 13.26249015 12.54279000
   9.84801151 13.37280729 12.50759500
  16.62719200 20.15198779 12.50759500
  16.62719412  9.84801292 17.49240700
   9.84801363 16.62719342 17.49240700
  20.15198849 13.37280729 12.50759500
  13.37280800 20.15198779 12.50759500
  13.26249015 13.26249015 12.54279000
  15.00000000 11.52498029 15.00000000
  18.52479437 15.00000140 10.20639500
  18.52479437 15.00000141 19.79360400
  11.47520562 15.00000141 10.20639501
  11.47520563 15.00000141 19.79360400
  11.49534898 11.49534898 15.00000000
  18.50465172 18.50465172 15.00000000
  18.50465102 11.49534898 15.00000000
  11.49534828 18.50465172 15.00000000
  15.00000000 15.00000000 10.04367500
  15.00000000 15.00000000 19.95632599
   9.84801151 13.37280729 17.49240700
  16.62719200 20.15198779 17.49240700
  16.73750985 13.26249015 17.45721100
  13.26248944 16.73751056 12.54279001
  13.26249015 13.26249015 17.45721100
  20.15198849 13.37280729 17.49240699
  13.37280800 20.15198779 17.49240700
  16.73751056 16.73751056 12.54279000
  11.52497959 15.00000071 15.00000000
  18.47502041 15.00000071 15.00000000
  14.99999999 18.52479579 10.20639500
  15.00000000 18.52479578 19.79360400
  15.00000000 15.00000000 15.00000000
  13.26248944 16.73751057 17.45721101
  16.73751056 16.73751057 17.45721100
  15.00000000 18.47502112 15.00000000
  13.12651800 14.40621000 21.13973900
  12.79870500 14.30231100 22.21404200
 


--------------------------------------------------------------------------------------------------------


 k-point  1 :   0.0000 0.0000 0.0000  plane waves:  490521

 maximum and minimum number of plane-waves per node :    490521   490521

 maximum number of plane-waves:    490521
 maximum index in each direction: 
   IXMAX=   48   IYMAX=   48   IZMAX=   48
   IXMIN=  -48   IYMIN=  -48   IZMIN=  -48


 serial   3D FFT for wavefunctions
 parallel 3D FFT for charge:
    minimum data exchange during FFTs selected (reduces bandwidth)


 total amount of memory used by VASP MPI-rank0  5486942. kBytes
=======================================================================

   base      :      30000. kBytes
   nonlr-proj:      17127. kBytes
   fftplans  :     924480. kBytes
   grid      :    1872000. kBytes
   one-center:        886. kBytes
   wavefun   :    2642449. kBytes
 
     INWAV:  cpu time    0.0001: real time    0.0004
 Broyden mixing: mesh for mixing (old mesh)
   NGX = 97   NGY = 97   NGZ = 97
  (NGX  =300   NGY  =300   NGZ  =300)
  gives a total of 912673 points

 initial charge density was supplied:
 charge density of overlapping atoms calculated
 number of electron     560.0000000 magnetization 
 keeping initial charge density in first step


--------------------------------------------------------------------------------------------------------


 Maximum index for non-local projection operator         1763
 Maximum index for augmentation-charges         5898 (set IRDMAX)


--------------------------------------------------------------------------------------------------------


 First call to EWALD:  gamma=   0.059
 Maximum number of real-space cells 3x 3x 3
 Maximum number of reciprocal cells 3x 3x 3

    FEWALD:  cpu time    0.0152: real time    0.0152


--------------------------------------- Iteration      1(   1)  ---------------------------------------


    POTLOK:  cpu time   14.4596: real time   14.4639
    SETDIJ:  cpu time    0.1219: real time    0.1219
     EDDAV:  cpu time  366.7955: real time  366.8662
       DOS:  cpu time    0.0014: real time    0.0014
    --------------------------------------------
      LOOP:  cpu time  381.3784: real time  381.4533

 eigenvalue-minimisations  :   688
 total energy-change (2. order) : 0.4389364E+04  (-0.1005168E+05)
 number of electron     560.0000000 magnetization 
 augmentation part      560.0000000 magnetization 

 Free energy of the ion-electron system (eV)
  ---------------------------------------------------
  alpha Z        PSCENC =        75.25431677
  Ewald energy   TEWEN  =    139149.73714437
  -Hartree energ DENC   =   -182511.04999347
  -exchange      EXHF   =         0.00000000
  -V(xc)+E(xc)   XCENC  =     -1702.86360431
  PAW double counting   =     44873.02882129   -41398.84523641
  entropy T*S    EENTRO =        -0.01174849
  eigenvalues    EBANDS =       817.60833847
  atomic energy  EATOM  =     45086.50549395
  Solvation  Ediel_sol  =         0.00000000
  ---------------------------------------------------
  free energy    TOTEN  =      4389.36353217 eV

  energy without entropy =     4389.37528066  energy(sigma->0) =     4389.36646929


--------------------------------------------------------------------------------------------------------




--------------------------------------- Iteration      1(   2)  ---------------------------------------


     EDDAV:  cpu time  589.8110: real time  589.8123
       DOS:  cpu time    0.0012: real time    0.0012
    --------------------------------------------
      LOOP:  cpu time  589.8122: real time  589.8135

 eigenvalue-minimisations  :  1224
 total energy-change (2. order) :-0.2379278E+04  (-0.2141305E+04)
 number of electron     560.0000000 magnetization 
 augmentation part      560.0000000 magnetization 

 Free energy of the ion-electron system (eV)
  ---------------------------------------------------
  alpha Z        PSCENC =        75.25431677
  Ewald energy   TEWEN  =    139149.73714437
  -Hartree energ DENC   =   -182511.04999347
  -exchange      EXHF   =         0.00000000
  -V(xc)+E(xc)   XCENC  =     -1702.86360431
  PAW double counting   =     44873.02882129   -41398.84523641
  entropy T*S    EENTRO =        -0.00458798
  eigenvalues    EBANDS =     -1561.67724321
  atomic energy  EATOM  =     45086.50549395
  Solvation  Ediel_sol  =         0.00000000
  ---------------------------------------------------
  free energy    TOTEN  =      2010.08511100 eV

  energy without entropy =     2010.08969898  energy(sigma->0) =     2010.08625800


--------------------------------------------------------------------------------------------------------




--------------------------------------- Iteration      1(   3)  ---------------------------------------


     EDDAV:  cpu time  505.1387: real time  505.1496
       DOS:  cpu time    0.0011: real time    0.0011
    --------------------------------------------
      LOOP:  cpu time  505.1399: real time  505.1507

 eigenvalue-minimisations  :  1008
 total energy-change (2. order) :-0.1780904E+04  (-0.1674843E+04)
 number of electron     560.0000000 magnetization 
 augmentation part      560.0000000 magnetization 

 Free energy of the ion-electron system (eV)
  ---------------------------------------------------
  alpha Z        PSCENC =        75.25431677
  Ewald energy   TEWEN  =    139149.73714437
  -Hartree energ DENC   =   -182511.04999347
  -exchange      EXHF   =         0.00000000
  -V(xc)+E(xc)   XCENC  =     -1702.86360431
  PAW double counting   =     44873.02882129   -41398.84523641
  entropy T*S    EENTRO =        -0.03862856
  eigenvalues    EBANDS =     -3342.54685130
  atomic energy  EATOM  =     45086.50549395
  Solvation  Ediel_sol  =         0.00000000
  ---------------------------------------------------
  free energy    TOTEN  =       229.18146233 eV

  energy without entropy =      229.22009089  energy(sigma->0) =      229.19111947


--------------------------------------------------------------------------------------------------------




--------------------------------------- Iteration      1(   4)  ---------------------------------------


     EDDAV:  cpu time  433.0824: real time  433.0849
       DOS:  cpu time    0.0012: real time    0.0012
    --------------------------------------------
      LOOP:  cpu time  433.0836: real time  433.0861

 eigenvalue-minimisations  :   832
 total energy-change (2. order) :-0.3639892E+03  (-0.3104291E+03)
 number of electron     560.0000000 magnetization 
 augmentation part      560.0000000 magnetization 

 Free energy of the ion-electron system (eV)
  ---------------------------------------------------
  alpha Z        PSCENC =        75.25431677
  Ewald energy   TEWEN  =    139149.73714437
  -Hartree energ DENC   =   -182511.04999347
  -exchange      EXHF   =         0.00000000
  -V(xc)+E(xc)   XCENC  =     -1702.86360431
  PAW double counting   =     44873.02882129   -41398.84523641
  entropy T*S    EENTRO =         0.02728472
  eigenvalues    EBANDS =     -3706.60198509
  atomic energy  EATOM  =     45086.50549395
  Solvation  Ediel_sol  =         0.00000000
  ---------------------------------------------------
  free energy    TOTEN  =      -134.80775819 eV

  energy without entropy =     -134.83504291  energy(sigma->0) =     -134.81457937


--------------------------------------------------------------------------------------------------------




--------------------------------------- Iteration      1(   5)  ---------------------------------------


     EDDAV:  cpu time  524.8446: real time  524.8492
       DOS:  cpu time    0.0014: real time    0.0014
    CHARGE:  cpu time   25.1486: real time   25.1484
    MIXING:  cpu time    0.4410: real time    0.4410
    --------------------------------------------
      LOOP:  cpu time  550.4356: real time  550.4400

 eigenvalue-minimisations  :  1056
 total energy-change (2. order) :-0.4529976E+02  (-0.3729379E+02)
 number of electron     559.9999970 magnetization 
 augmentation part      245.1275635 magnetization 

 Broyden mixing:
  rms(total) = 0.14449E+01    rms(broyden)= 0.14440E+01
  rms(prec ) = 0.15512E+01
  weight for this iteration     100.00

 Free energy of the ion-electron system (eV)
  ---------------------------------------------------
  alpha Z        PSCENC =        75.25431677
  Ewald energy   TEWEN  =    139149.73714437
  -Hartree energ DENC   =   -182511.04999347
  -exchange      EXHF   =         0.00000000
  -V(xc)+E(xc)   XCENC  =     -1702.86360431
  PAW double counting   =     44873.02882129   -41398.84523641
  entropy T*S    EENTRO =         0.48214253
  eigenvalues    EBANDS =     -3752.35659825
  atomic energy  EATOM  =     45086.50549395
  Solvation  Ediel_sol  =         0.00000000
  ---------------------------------------------------
  free energy    TOTEN  =      -180.10751353 eV

  energy without entropy =     -180.58965606  energy(sigma->0) =     -180.22804916


--------------------------------------------------------------------------------------------------------




--------------------------------------- Iteration      1(   6)  ---------------------------------------


    POTLOK:  cpu time   13.4614: real time   13.4653
    SETDIJ:  cpu time    0.1275: real time    0.1275
    EDDIAG:  cpu time   68.5744: real time   68.5745
  RMM-DIIS:  cpu time  193.6553: real time  193.6565
    ORTHCH:  cpu time   13.6606: real time   13.6605
       DOS:  cpu time    0.0014: real time    0.0014
    CHARGE:  cpu time   25.4069: real time   25.4084
    MIXING:  cpu time    0.4683: real time    0.4683
    --------------------------------------------
      LOOP:  cpu time  315.3557: real time  315.3624

 eigenvalue-minimisations  :   727
 total energy-change (2. order) : 0.8501258E+00  (-0.5159358E+01)
 number of electron     559.9999985 magnetization 
 augmentation part      240.6937693 magnetization 

 Broyden mixing:
  rms(total) = 0.19361E+01    rms(broyden)= 0.19359E+01
  rms(prec ) = 0.22423E+01
  weight for this iteration     100.00

 eigenvalues of (default mixing * dielectric matrix)
  average eigenvalue GAMMA=   0.3875
  0.3875

 Free energy of the ion-electron system (eV)
  ---------------------------------------------------
  alpha Z        PSCENC =        75.25431677
  Ewald energy   TEWEN  =    139149.73714437
  -Hartree energ DENC   =   -182919.17485658
  -exchange      EXHF   =         0.00000000
  -V(xc)+E(xc)   XCENC  =     -1696.50268800
  PAW double counting   =     45627.69470002   -42126.73544808
  entropy T*S    EENTRO =        -0.18782748
  eigenvalues    EBANDS =     -3375.84822275
  atomic energy  EATOM  =     45086.50549395
  Solvation  Ediel_sol  =         0.00000000
  ---------------------------------------------------
  free energy    TOTEN  =      -179.25738777 eV

  energy without entropy =     -179.06956029  energy(sigma->0) =     -179.21043090


--------------------------------------------------------------------------------------------------------




--------------------------------------- Iteration      1(   7)  ---------------------------------------


    POTLOK:  cpu time   13.3862: real time   13.3905
    SETDIJ:  cpu time    0.1279: real time    0.1279
    EDDIAG:  cpu time   68.1730: real time   68.1796
  RMM-DIIS:  cpu time  224.8201: real time  224.8435
    ORTHCH:  cpu time   13.3164: real time   13.3177
       DOS:  cpu time    0.0014: real time    0.0014
    CHARGE:  cpu time   25.0227: real time   25.0252
    MIXING:  cpu time    0.4969: real time    0.4970
    --------------------------------------------
      LOOP:  cpu time  345.3446: real time  345.3827

 eigenvalue-minimisations  :   851
 total energy-change (2. order) :-0.3543416E+01  (-0.1858600E+01)
 number of electron     559.9999954 magnetization 
 augmentation part      240.2668546 magnetization 

 Broyden mixing:
  rms(total) = 0.25837E+01    rms(broyden)= 0.25835E+01
  rms(prec ) = 0.31636E+01
  weight for this iteration     100.00

 eigenvalues of (default mixing * dielectric matrix)
  average eigenvalue GAMMA=   0.3114
  0.4895  0.1332

 Free energy of the ion-electron system (eV)
  ---------------------------------------------------
  alpha Z        PSCENC =        75.25431677
  Ewald energy   TEWEN  =    139149.73714437
  -Hartree energ DENC   =   -183016.75560525
  -exchange      EXHF   =         0.00000000
  -V(xc)+E(xc)   XCENC  =     -1696.68635103
  PAW double counting   =     45707.03250754   -42202.89635552
  entropy T*S    EENTRO =        -0.02037412
  eigenvalues    EBANDS =     -3284.97158038
  atomic energy  EATOM  =     45086.50549395
  Solvation  Ediel_sol  =         0.00000000
  ---------------------------------------------------
  free energy    TOTEN  =      -182.80080368 eV

  energy without entropy =     -182.78042956  energy(sigma->0) =     -182.79571015


--------------------------------------------------------------------------------------------------------




--------------------------------------- Iteration      1(   8)  ---------------------------------------


    POTLOK:  cpu time   13.2371: real time   13.2388
    SETDIJ:  cpu time    0.1209: real time    0.1209
    EDDIAG:  cpu time   67.6400: real time   67.6465
  RMM-DIIS:  cpu time  217.5698: real time  217.5839
    ORTHCH:  cpu time   13.2255: real time   13.2284
       DOS:  cpu time    0.0015: real time    0.0015
    CHARGE:  cpu time   25.5758: real time   25.5773
    MIXING:  cpu time    0.5020: real time    0.5020
    --------------------------------------------
      LOOP:  cpu time  337.8724: real time  337.8992

 eigenvalue-minimisations  :   820
 total energy-change (2. order) :-0.8832153E-02  (-0.5979928E+00)
 number of electron     559.9999943 magnetization 
 augmentation part      240.3899281 magnetization 

 Broyden mixing:
  rms(total) = 0.22852E+01    rms(broyden)= 0.22849E+01
  rms(prec ) = 0.26510E+01
  weight for this iteration     100.00

 eigenvalues of (default mixing * dielectric matrix)
  average eigenvalue GAMMA=   0.3117
  0.6585  0.1485  0.1280

 Free energy of the ion-electron system (eV)
  ---------------------------------------------------
  alpha Z        PSCENC =        75.25431677
  Ewald energy   TEWEN  =    139149.73714437
  -Hartree energ DENC   =   -183043.45120389
  -exchange      EXHF   =         0.00000000
  -V(xc)+E(xc)   XCENC  =     -1696.69951118
  PAW double counting   =     45753.80349179   -42247.82011734
  entropy T*S    EENTRO =        -0.10521006
  eigenvalues    EBANDS =     -3260.03404024
  atomic energy  EATOM  =     45086.50549395
  Solvation  Ediel_sol  =         0.00000000
  ---------------------------------------------------
  free energy    TOTEN  =      -182.80963583 eV

  energy without entropy =     -182.70442578  energy(sigma->0) =     -182.78333332


--------------------------------------------------------------------------------------------------------




--------------------------------------- Iteration      1(   9)  ---------------------------------------


    POTLOK:  cpu time   13.5098: real time   13.5107
    SETDIJ:  cpu time    0.1252: real time    0.1252
    EDDIAG:  cpu time   70.3679: real time   70.3759
  RMM-DIIS:  cpu time  189.9443: real time  189.9473
    ORTHCH:  cpu time   13.3305: real time   13.3304
       DOS:  cpu time    0.0014: real time    0.0014
    CHARGE:  cpu time   25.8581: real time   25.8580
    MIXING:  cpu time    0.5451: real time    0.5451
    --------------------------------------------
      LOOP:  cpu time  313.6822: real time  313.6939

 eigenvalue-minimisations  :   721
 total energy-change (2. order) : 0.1287176E+01  (-0.5136332E+00)
 number of electron     559.9999942 magnetization 
 augmentation part      241.2324839 magnetization 

 Broyden mixing:
  rms(total) = 0.24390E+01    rms(broyden)= 0.24386E+01
  rms(prec ) = 0.28374E+01
  weight for this iteration     100.00

 eigenvalues of (default mixing * dielectric matrix)
  average eigenvalue GAMMA=   0.2876
  0.7413  0.1533  0.1533  0.1025

 Free energy of the ion-electron system (eV)
  ---------------------------------------------------
  alpha Z        PSCENC =        75.25431677
  Ewald energy   TEWEN  =    139149.73714437
  -Hartree energ DENC   =   -183058.95854868
  -exchange      EXHF   =         0.00000000
  -V(xc)+E(xc)   XCENC  =     -1696.61634859
  PAW double counting   =     45820.20198673   -42311.49504333
  entropy T*S    EENTRO =         0.01641713
  eigenvalues    EBANDS =     -3246.16787829
  atomic energy  EATOM  =     45086.50549395
  Solvation  Ediel_sol  =         0.00000000
  ---------------------------------------------------
  free energy    TOTEN  =      -181.52245994 eV

  energy without entropy =     -181.53887707  energy(sigma->0) =     -181.52656422


--------------------------------------------------------------------------------------------------------




--------------------------------------- Iteration      1(  10)  ---------------------------------------


    POTLOK:  cpu time   13.2778: real time   13.2791
    SETDIJ:  cpu time    0.1237: real time    0.1237
    EDDIAG:  cpu time   69.2595: real time   69.2603
  RMM-DIIS:  cpu time  193.1342: real time  193.1389
    ORTHCH:  cpu time   13.1381: real time   13.1380
       DOS:  cpu time    0.0014: real time    0.0014
    CHARGE:  cpu time   25.2371: real time   25.2370
    MIXING:  cpu time    0.6196: real time    0.6196
    --------------------------------------------
      LOOP:  cpu time  314.7915: real time  314.7979

 eigenvalue-minimisations  :   732
 total energy-change (2. order) : 0.1909443E+01  (-0.2626641E+00)
 number of electron     559.9999948 magnetization 
 augmentation part      241.5226070 magnetization 

 Broyden mixing:
  rms(total) = 0.20426E+01    rms(broyden)= 0.20422E+01
  rms(prec ) = 0.23643E+01
  weight for this iteration     100.00

 eigenvalues of (default mixing * dielectric matrix)
  average eigenvalue GAMMA=   0.2736
  0.8204  0.1629  0.1629  0.1418  0.0798

 Free energy of the ion-electron system (eV)
  ---------------------------------------------------
  alpha Z        PSCENC =        75.25431677
  Ewald energy   TEWEN  =    139149.73714437
  -Hartree energ DENC   =   -183086.55602441
  -exchange      EXHF   =         0.00000000
  -V(xc)+E(xc)   XCENC  =     -1696.46418621
  PAW double counting   =     45862.45672907   -42352.06156716
  entropy T*S    EENTRO =        -0.09173877
  eigenvalues    EBANDS =     -3218.39318491
  atomic energy  EATOM  =     45086.50549395
  Solvation  Ediel_sol  =         0.00000000
  ---------------------------------------------------
  free energy    TOTEN  =      -179.61301729 eV

  energy without entropy =     -179.52127853  energy(sigma->0) =     -179.59008260


--------------------------------------------------------------------------------------------------------




--------------------------------------- Iteration      1(  11)  ---------------------------------------


    POTLOK:  cpu time   13.1922: real time   13.1958
    SETDIJ:  cpu time    0.1211: real time    0.1210
    EDDIAG:  cpu time   68.1422: real time   68.1426
  RMM-DIIS:  cpu time  189.6837: real time  189.7011
    ORTHCH:  cpu time   13.1980: real time   13.1981
       DOS:  cpu time    0.0015: real time    0.0015
    CHARGE:  cpu time   24.9342: real time   24.9361
    MIXING:  cpu time    0.5973: real time    0.5973
    --------------------------------------------
      LOOP:  cpu time  309.8702: real time  309.8935

 eigenvalue-minimisations  :   721
 total energy-change (2. order) : 0.1516242E+01  (-0.2001135E+00)
 number of electron     559.9999956 magnetization 
 augmentation part      241.5404909 magnetization 

 Broyden mixing:
  rms(total) = 0.16550E+01    rms(broyden)= 0.16547E+01
  rms(prec ) = 0.19612E+01
  weight for this iteration     100.00

 eigenvalues of (default mixing * dielectric matrix)
  average eigenvalue GAMMA=   0.2623
  0.8787  0.1993  0.1993  0.1117  0.1117  0.0733

 Free energy of the ion-electron system (eV)
  ---------------------------------------------------
  alpha Z        PSCENC =        75.25431677
  Ewald energy   TEWEN  =    139149.73714437
  -Hartree energ DENC   =   -183114.71625365
  -exchange      EXHF   =         0.00000000
  -V(xc)+E(xc)   XCENC  =     -1696.28509348
  PAW double counting   =     45902.30423173   -42390.18694918
  entropy T*S    EENTRO =         0.05873915
  eigenvalues    EBANDS =     -3190.76840468
  atomic energy  EATOM  =     45086.50549395
  Solvation  Ediel_sol  =         0.00000000
  ---------------------------------------------------
  free energy    TOTEN  =      -178.09677502 eV

  energy without entropy =     -178.15551417  energy(sigma->0) =     -178.11145980


--------------------------------------------------------------------------------------------------------




--------------------------------------- Iteration      1(  12)  ---------------------------------------


    POTLOK:  cpu time   13.1134: real time   13.1149
    SETDIJ:  cpu time    0.1212: real time    0.1212
    EDDIAG:  cpu time   69.3262: real time   69.3284
  RMM-DIIS:  cpu time  191.2686: real time  191.2791
    ORTHCH:  cpu time   13.5991: real time   13.5991
       DOS:  cpu time    0.0015: real time    0.0015
    CHARGE:  cpu time   25.6129: real time   25.6127
    MIXING:  cpu time    0.6446: real time    0.6446
    --------------------------------------------
      LOOP:  cpu time  313.6876: real time  313.7014

 eigenvalue-minimisations  :   727
 total energy-change (2. order) : 0.5740346E+00  (-0.1100952E+00)
 number of electron     559.9999960 magnetization 
 augmentation part      241.6199312 magnetization 

 Broyden mixing:
  rms(total) = 0.14986E+01    rms(broyden)= 0.14983E+01
  rms(prec ) = 0.18277E+01
  weight for this iteration     100.00

 eigenvalues of (default mixing * dielectric matrix)
  average eigenvalue GAMMA=   0.2587
  0.9347  0.2424  0.2424  0.1154  0.1154  0.0987  0.0622

 Free energy of the ion-electron system (eV)
  ---------------------------------------------------
  alpha Z        PSCENC =        75.25431677
  Ewald energy   TEWEN  =    139149.73714437
  -Hartree energ DENC   =   -183130.67596477
  -exchange      EXHF   =         0.00000000
  -V(xc)+E(xc)   XCENC  =     -1696.09713215
  PAW double counting   =     45930.38007518   -42416.95043395
  entropy T*S    EENTRO =        -0.06366031
  eigenvalues    EBANDS =     -3175.61257950
  atomic energy  EATOM  =     45086.50549395
  Solvation  Ediel_sol  =         0.00000000
  ---------------------------------------------------
  free energy    TOTEN  =      -177.52274041 eV

  energy without entropy =     -177.45908011  energy(sigma->0) =     -177.50682534


--------------------------------------------------------------------------------------------------------




--------------------------------------- Iteration      1(  13)  ---------------------------------------


    POTLOK:  cpu time   13.5553: real time   13.5585
    SETDIJ:  cpu time    0.1232: real time    0.1232
    EDDIAG:  cpu time   69.6563: real time   69.6565
  RMM-DIIS:  cpu time  190.8511: real time  190.8556
    ORTHCH:  cpu time   13.4355: real time   13.4354
       DOS:  cpu time    0.0015: real time    0.0015
    CHARGE:  cpu time   25.8912: real time   25.8910
    MIXING:  cpu time    0.7156: real time    0.7156
    --------------------------------------------
      LOOP:  cpu time  314.2297: real time  314.2374

 eigenvalue-minimisations  :   732
 total energy-change (2. order) : 0.4879273E+00  (-0.8941091E-01)
 number of electron     559.9999948 magnetization 
 augmentation part      241.6411493 magnetization 

 Broyden mixing:
  rms(total) = 0.15621E+01    rms(broyden)= 0.15618E+01
  rms(prec ) = 0.18584E+01
  weight for this iteration     100.00

 eigenvalues of (default mixing * dielectric matrix)
  average eigenvalue GAMMA=   0.2658
  1.0236  0.2995  0.2995  0.1459  0.1160  0.1160  0.0672  0.0586

 Free energy of the ion-electron system (eV)
  ---------------------------------------------------
  alpha Z        PSCENC =        75.25431677
  Ewald energy   TEWEN  =    139149.73714437
  -Hartree energ DENC   =   -183149.29413222
  -exchange      EXHF   =         0.00000000
  -V(xc)+E(xc)   XCENC  =     -1695.86381729
  PAW double counting   =     45960.37271001   -42445.47634885
  entropy T*S    EENTRO =        -0.05413234
  eigenvalues    EBANDS =     -3158.21604748
  atomic energy  EATOM  =     45086.50549395
  Solvation  Ediel_sol  =         0.00000000
  ---------------------------------------------------
  free energy    TOTEN  =      -177.03481308 eV

  energy without entropy =     -176.98068074  energy(sigma->0) =     -177.02128000


--------------------------------------------------------------------------------------------------------




--------------------------------------- Iteration      1(  14)  ---------------------------------------


    POTLOK:  cpu time   13.3636: real time   13.3680
    SETDIJ:  cpu time    0.1265: real time    0.1265
    EDDIAG:  cpu time   68.4012: real time   68.4045
  RMM-DIIS:  cpu time  185.9354: real time  185.9405
    ORTHCH:  cpu time   13.4370: real time   13.4369
       DOS:  cpu time    0.0015: real time    0.0015
    CHARGE:  cpu time   25.2006: real time   25.2005
    MIXING:  cpu time    0.7150: real time    0.7150
    --------------------------------------------
      LOOP:  cpu time  307.1808: real time  307.1933

 eigenvalue-minimisations  :   709
 total energy-change (2. order) : 0.5315570E+00  (-0.1159091E+00)
 number of electron     559.9999950 magnetization 
 augmentation part      241.5032239 magnetization 

 Broyden mixing:
  rms(total) = 0.12207E+01    rms(broyden)= 0.12204E+01
  rms(prec ) = 0.14124E+01
  weight for this iteration     100.00

 eigenvalues of (default mixing * dielectric matrix)
  average eigenvalue GAMMA=   0.2795
  1.1757  0.4253  0.2701  0.1589  0.1188  0.1188  0.1183  0.0736  0.0561

 Free energy of the ion-electron system (eV)
  ---------------------------------------------------
  alpha Z        PSCENC =        75.25431677
  Ewald energy   TEWEN  =    139149.73714437
  -Hartree energ DENC   =   -183180.94512119
  -exchange      EXHF   =         0.00000000
  -V(xc)+E(xc)   XCENC  =     -1695.44970326
  PAW double counting   =     46008.71359245   -42491.40211081
  entropy T*S    EENTRO =        -0.07910803
  eigenvalues    EBANDS =     -3128.83776036
  atomic energy  EATOM  =     45086.50549395
  Solvation  Ediel_sol  =         0.00000000
  ---------------------------------------------------
  free energy    TOTEN  =      -176.50325610 eV

  energy without entropy =     -176.42414807  energy(sigma->0) =     -176.48347909


--------------------------------------------------------------------------------------------------------




--------------------------------------- Iteration      1(  15)  ---------------------------------------


    POTLOK:  cpu time   13.3065: real time   13.3122
    SETDIJ:  cpu time    0.1236: real time    0.1237
    EDDIAG:  cpu time   68.7086: real time   68.7088
  RMM-DIIS:  cpu time  185.2937: real time  185.3041
    ORTHCH:  cpu time   13.6656: real time   13.6659
       DOS:  cpu time    0.0015: real time    0.0015
    CHARGE:  cpu time   25.5544: real time   25.5624
    MIXING:  cpu time    0.8436: real time    0.8446
    --------------------------------------------
      LOOP:  cpu time  307.4976: real time  307.5232

 eigenvalue-minimisations  :   711
 total energy-change (2. order) : 0.8985856E-01  (-0.9631097E-01)
 number of electron     559.9999973 magnetization 
 augmentation part      241.3493198 magnetization 

 Broyden mixing:
  rms(total) = 0.12274E+01    rms(broyden)= 0.12271E+01
  rms(prec ) = 0.14491E+01
  weight for this iteration     100.00

 eigenvalues of (default mixing * dielectric matrix)
  average eigenvalue GAMMA=   0.3081
  1.3718  0.6793  0.2216  0.2216  0.1422  0.1181  0.1181  0.0763  0.0763  0.0559

 Free energy of the ion-electron system (eV)
  ---------------------------------------------------
  alpha Z        PSCENC =        75.25431677
  Ewald energy   TEWEN  =    139149.73714437
  -Hartree energ DENC   =   -183217.61816559
  -exchange      EXHF   =         0.00000000
  -V(xc)+E(xc)   XCENC  =     -1694.89421678
  PAW double counting   =     46065.26983522   -42545.03677308
  entropy T*S    EENTRO =        -0.00739174
  eigenvalues    EBANDS =     -3095.62364064
  atomic energy  EATOM  =     45086.50549395
  Solvation  Ediel_sol  =         0.00000000
  ---------------------------------------------------
  free energy    TOTEN  =      -176.41339754 eV

  energy without entropy =     -176.40600580  energy(sigma->0) =     -176.41154960


--------------------------------------------------------------------------------------------------------




--------------------------------------- Iteration      1(  16)  ---------------------------------------


    POTLOK:  cpu time   13.6304: real time   13.6352
    SETDIJ:  cpu time    0.1258: real time    0.1258
    EDDIAG:  cpu time   69.1136: real time   69.1165
  RMM-DIIS:  cpu time  185.5706: real time  185.5865
    ORTHCH:  cpu time   13.2447: real time   13.2459
       DOS:  cpu time    0.0014: real time    0.0014
    CHARGE:  cpu time   25.4256: real time   25.4281
    MIXING:  cpu time    0.8171: real time    0.8171
    --------------------------------------------
      LOOP:  cpu time  307.9293: real time  307.9566

 eigenvalue-minimisations  :   711
 total energy-change (2. order) : 0.5481891E-01  (-0.7314795E-01)
 number of electron     559.9999951 magnetization 
 augmentation part      241.1842275 magnetization 

 Broyden mixing:
  rms(total) = 0.15811E+01    rms(broyden)= 0.15809E+01
  rms(prec ) = 0.18499E+01
  weight for this iteration     100.00

 eigenvalues of (default mixing * dielectric matrix)
  average eigenvalue GAMMA=   0.3108
  1.5041  0.7587  0.2525  0.2525  0.1205  0.1205  0.1157  0.0972  0.0710  0.0710
  0.0550

 Free energy of the ion-electron system (eV)
  ---------------------------------------------------
  alpha Z        PSCENC =        75.25431677
  Ewald energy   TEWEN  =    139149.73714437
  -Hartree energ DENC   =   -183258.68095078
  -exchange      EXHF   =         0.00000000
  -V(xc)+E(xc)   XCENC  =     -1694.30085648
  PAW double counting   =     46119.61435386   -42596.43552875
  entropy T*S    EENTRO =         0.02519173
  eigenvalues    EBANDS =     -3058.07774329
  atomic energy  EATOM  =     45086.50549395
  Solvation  Ediel_sol  =         0.00000000
  ---------------------------------------------------
  free energy    TOTEN  =      -176.35857862 eV

  energy without entropy =     -176.38377035  energy(sigma->0) =     -176.36487656


--------------------------------------------------------------------------------------------------------




--------------------------------------- Iteration      1(  17)  ---------------------------------------


    POTLOK:  cpu time   13.3689: real time   13.3717
    SETDIJ:  cpu time    0.1224: real time    0.1224
    EDDIAG:  cpu time   69.1339: real time   69.1421
  RMM-DIIS:  cpu time  185.5517: real time  185.5544
    ORTHCH:  cpu time   13.4735: real time   13.4736
       DOS:  cpu time    0.0014: real time    0.0014
    CHARGE:  cpu time   25.6078: real time   25.6081
    MIXING:  cpu time    0.8880: real time    0.8880
    --------------------------------------------
      LOOP:  cpu time  308.1476: real time  308.1618

 eigenvalue-minimisations  :   714
 total energy-change (2. order) : 0.3388652E+00  (-0.5213919E-01)
 number of electron     559.9999966 magnetization 
 augmentation part      241.1133571 magnetization 

 Broyden mixing:
  rms(total) = 0.12565E+01    rms(broyden)= 0.12562E+01
  rms(prec ) = 0.14714E+01
  weight for this iteration     100.00

 eigenvalues of (default mixing * dielectric matrix)
  average eigenvalue GAMMA=   0.3180
  1.5826  0.8576  0.3101  0.3101  0.1291  0.1291  0.1139  0.1139  0.0825  0.0751
  0.0593  0.0520

 Free energy of the ion-electron system (eV)
  ---------------------------------------------------
  alpha Z        PSCENC =        75.25431677
  Ewald energy   TEWEN  =    139149.73714437
  -Hartree energ DENC   =   -183279.04996581
  -exchange      EXHF   =         0.00000000
  -V(xc)+E(xc)   XCENC  =     -1694.03977928
  PAW double counting   =     46144.66072536   -42620.06059468
  entropy T*S    EENTRO =         0.07739796
  eigenvalues    EBANDS =     -3039.10445211
  atomic energy  EATOM  =     45086.50549395
  Solvation  Ediel_sol  =         0.00000000
  ---------------------------------------------------
  free energy    TOTEN  =      -176.01971346 eV

  energy without entropy =     -176.09711143  energy(sigma->0) =     -176.03906296


--------------------------------------------------------------------------------------------------------




--------------------------------------- Iteration      1(  18)  ---------------------------------------


    POTLOK:  cpu time   13.4072: real time   13.4108
    SETDIJ:  cpu time    0.1239: real time    0.1239
    EDDIAG:  cpu time   69.1794: real time   69.1810
  RMM-DIIS:  cpu time  181.4460: real time  181.4520
    ORTHCH:  cpu time   13.5077: real time   13.5076
       DOS:  cpu time    0.0015: real time    0.0015
    CHARGE:  cpu time   25.7600: real time   25.7600
    MIXING:  cpu time    0.9193: real time    0.9193
    --------------------------------------------
      LOOP:  cpu time  304.3449: real time  304.3561

 eigenvalue-minimisations  :   699
 total energy-change (2. order) : 0.7485524E-01  (-0.4444617E-01)
 number of electron     559.9999980 magnetization 
 augmentation part      241.0750227 magnetization 

 Broyden mixing:
  rms(total) = 0.12780E+01    rms(broyden)= 0.12778E+01
  rms(prec ) = 0.14756E+01
  weight for this iteration     100.00

 eigenvalues of (default mixing * dielectric matrix)
  average eigenvalue GAMMA=   0.3302
  1.6724  1.0381  0.3635  0.3635  0.1409  0.1409  0.1146  0.1146  0.0799  0.0799
  0.0787  0.0560  0.0496

 Free energy of the ion-electron system (eV)
  ---------------------------------------------------
  alpha Z        PSCENC =        75.25431677
  Ewald energy   TEWEN  =    139149.73714437
  -Hartree energ DENC   =   -183296.30162573
  -exchange      EXHF   =         0.00000000
  -V(xc)+E(xc)   XCENC  =     -1693.86484959
  PAW double counting   =     46159.12715361   -42633.54822591
  entropy T*S    EENTRO =         0.03618529
  eigenvalues    EBANDS =     -3022.89045099
  atomic energy  EATOM  =     45086.50549395
  Solvation  Ediel_sol  =         0.00000000
  ---------------------------------------------------
  free energy    TOTEN  =      -175.94485823 eV

  energy without entropy =     -175.98104352  energy(sigma->0) =     -175.95390455


--------------------------------------------------------------------------------------------------------




--------------------------------------- Iteration      1(  19)  ---------------------------------------


    POTLOK:  cpu time   13.2030: real time   13.2051
    SETDIJ:  cpu time    0.1231: real time    0.1231
    EDDIAG:  cpu time   69.1817: real time   69.1864
  RMM-DIIS:  cpu time  182.3731: real time  182.3751
    ORTHCH:  cpu time   13.4441: real time   13.4441
       DOS:  cpu time    0.0015: real time    0.0015
    CHARGE:  cpu time   25.4419: real time   25.4419
    MIXING:  cpu time    0.9817: real time    0.9817
    --------------------------------------------
      LOOP:  cpu time  304.7502: real time  304.7589

 eigenvalue-minimisations  :   703
 total energy-change (2. order) : 0.1584268E+00  (-0.4948888E-01)
 number of electron     559.9999964 magnetization 
 augmentation part      241.0384963 magnetization 

 Broyden mixing:
  rms(total) = 0.10072E+01    rms(broyden)= 0.10070E+01
  rms(prec ) = 0.11788E+01
  weight for this iteration     100.00

 eigenvalues of (default mixing * dielectric matrix)
  average eigenvalue GAMMA=   0.3412
  1.8614  1.1668  0.3800  0.3800  0.1593  0.1593  0.1185  0.1185  0.0801  0.0801
  0.0846  0.0846  0.0565  0.0475

 Free energy of the ion-electron system (eV)
  ---------------------------------------------------
  alpha Z        PSCENC =        75.25431677
  Ewald energy   TEWEN  =    139149.73714437
  -Hartree energ DENC   =   -183318.81148067
  -exchange      EXHF   =         0.00000000
  -V(xc)+E(xc)   XCENC  =     -1693.68493149
  PAW double counting   =     46172.22278410   -42645.49266532
  entropy T*S    EENTRO =         0.02480125
  eigenvalues    EBANDS =     -3001.54189440
  atomic energy  EATOM  =     45086.50549395
  Solvation  Ediel_sol  =         0.00000000
  ---------------------------------------------------
  free energy    TOTEN  =      -175.78643144 eV

  energy without entropy =     -175.81123269  energy(sigma->0) =     -175.79263175


--------------------------------------------------------------------------------------------------------




--------------------------------------- Iteration      1(  20)  ---------------------------------------


    POTLOK:  cpu time   13.2532: real time   13.2539
    SETDIJ:  cpu time    0.1202: real time    0.1202
    EDDIAG:  cpu time   69.1725: real time   69.1727
  RMM-DIIS:  cpu time  181.4916: real time  181.5016
    ORTHCH:  cpu time   13.4816: real time   13.4815
       DOS:  cpu time    0.0015: real time    0.0015
    CHARGE:  cpu time   25.4243: real time   25.4240
    MIXING:  cpu time    1.0399: real time    1.0399
    --------------------------------------------
      LOOP:  cpu time  303.9848: real time  303.9954

 eigenvalue-minimisations  :   696
 total energy-change (2. order) : 0.2354591E+00  (-0.4150361E-01)
 number of electron     559.9999973 magnetization 
 augmentation part      241.1050417 magnetization 

 Broyden mixing:
  rms(total) = 0.76773E+00    rms(broyden)= 0.76748E+00
  rms(prec ) = 0.88144E+00
  weight for this iteration     100.00

 eigenvalues of (default mixing * dielectric matrix)
  average eigenvalue GAMMA=   0.3434
  1.9894  1.2606  0.3479  0.3035  0.3035  0.1230  0.1230  0.1281  0.1281  0.1012
  0.0887  0.0752  0.0752  0.0562  0.0472

 Free energy of the ion-electron system (eV)
  ---------------------------------------------------
  alpha Z        PSCENC =        75.25431677
  Ewald energy   TEWEN  =    139149.73714437
  -Hartree energ DENC   =   -183340.78104888
  -exchange      EXHF   =         0.00000000
  -V(xc)+E(xc)   XCENC  =     -1693.45503832
  PAW double counting   =     46184.09637910   -42656.15469159
  entropy T*S    EENTRO =        -0.02039052
  eigenvalues    EBANDS =     -2980.73313725
  atomic energy  EATOM  =     45086.50549395
  Solvation  Ediel_sol  =         0.00000000
  ---------------------------------------------------
  free energy    TOTEN  =      -175.55097237 eV

  energy without entropy =     -175.53058185  energy(sigma->0) =     -175.54587474


--------------------------------------------------------------------------------------------------------




--------------------------------------- Iteration      1(  21)  ---------------------------------------


    POTLOK:  cpu time   13.3103: real time   13.3121
    SETDIJ:  cpu time    0.1253: real time    0.1253
    EDDIAG:  cpu time   68.9916: real time   68.9916
  RMM-DIIS:  cpu time  181.7751: real time  181.7895
    ORTHCH:  cpu time   13.4533: real time   13.4532
       DOS:  cpu time    0.0015: real time    0.0015
    CHARGE:  cpu time   25.5434: real time   25.5432
    MIXING:  cpu time    1.1018: real time    1.1018
    --------------------------------------------
      LOOP:  cpu time  304.3023: real time  304.3182

 eigenvalue-minimisations  :   696
 total energy-change (2. order) : 0.1459455E+00  (-0.2515793E-01)
 number of electron     559.9999964 magnetization 
 augmentation part      241.1516989 magnetization 

 Broyden mixing:
  rms(total) = 0.64107E+00    rms(broyden)= 0.64090E+00
  rms(prec ) = 0.73638E+00
  weight for this iteration     100.00

 eigenvalues of (default mixing * dielectric matrix)
  average eigenvalue GAMMA=   0.3560
  2.1108  1.3202  0.5660  0.3156  0.3156  0.1519  0.1337  0.1337  0.1141  0.1141
  0.0828  0.0828  0.0757  0.0757  0.0562  0.0470

 Free energy of the ion-electron system (eV)
  ---------------------------------------------------
  alpha Z        PSCENC =        75.25431677
  Ewald energy   TEWEN  =    139149.73714437
  -Hartree energ DENC   =   -183356.77537686
  -exchange      EXHF   =         0.00000000
  -V(xc)+E(xc)   XCENC  =     -1693.27634173
  PAW double counting   =     46187.65003416   -42658.92193714
  entropy T*S    EENTRO =        -0.02986429
  eigenvalues    EBANDS =     -2965.54849609
  atomic energy  EATOM  =     45086.50549395
  Solvation  Ediel_sol  =         0.00000000
  ---------------------------------------------------
  free energy    TOTEN  =      -175.40502686 eV

  energy without entropy =     -175.37516257  energy(sigma->0) =     -175.39756079


--------------------------------------------------------------------------------------------------------




--------------------------------------- Iteration      1(  22)  ---------------------------------------


    POTLOK:  cpu time   13.2482: real time   13.2498
    SETDIJ:  cpu time    0.1240: real time    0.1240
    EDDIAG:  cpu time   68.3965: real time   68.3976
  RMM-DIIS:  cpu time  183.8366: real time  183.8380
    ORTHCH:  cpu time   13.7552: real time   13.7551
       DOS:  cpu time    0.0015: real time    0.0015
    CHARGE:  cpu time   25.2589: real time   25.2587
    MIXING:  cpu time    1.2202: real time    1.2202
    --------------------------------------------
      LOOP:  cpu time  305.8412: real time  305.8449

 eigenvalue-minimisations  :   698
 total energy-change (2. order) : 0.1231434E+00  (-0.1540897E-01)
 number of electron     559.9999956 magnetization 
 augmentation part      241.2002369 magnetization 

 Broyden mixing:
  rms(total) = 0.52848E+00    rms(broyden)= 0.52831E+00
  rms(prec ) = 0.61018E+00
  weight for this iteration     100.00

 eigenvalues of (default mixing * dielectric matrix)
  average eigenvalue GAMMA=   0.3610
  2.1614  1.4265  0.6692  0.3360  0.3360  0.1738  0.1428  0.1428  0.1177  0.1177
  0.0898  0.0849  0.0849  0.0755  0.0755  0.0562  0.0469

 Free energy of the ion-electron system (eV)
  ---------------------------------------------------
  alpha Z        PSCENC =        75.25431677
  Ewald energy   TEWEN  =    139149.73714437
  -Hartree energ DENC   =   -183368.56825866
  -exchange      EXHF   =         0.00000000
  -V(xc)+E(xc)   XCENC  =     -1693.11403795
  PAW double counting   =     46186.66026694   -42657.37242838
  entropy T*S    EENTRO =        -0.04123142
  eigenvalues    EBANDS =     -2954.34314909
  atomic energy  EATOM  =     45086.50549395
  Solvation  Ediel_sol  =         0.00000000
  ---------------------------------------------------
  free energy    TOTEN  =      -175.28188347 eV

  energy without entropy =     -175.24065205  energy(sigma->0) =     -175.27157562


--------------------------------------------------------------------------------------------------------




--------------------------------------- Iteration      1(  23)  ---------------------------------------


    POTLOK:  cpu time   13.3256: real time   13.3286
    SETDIJ:  cpu time    0.1249: real time    0.1249
    EDDIAG:  cpu time   67.5531: real time   67.5533
  RMM-DIIS:  cpu time  183.1965: real time  183.1990
    ORTHCH:  cpu time   13.5631: real time   13.5630
       DOS:  cpu time    0.0015: real time    0.0015
    CHARGE:  cpu time   25.3209: real time   25.3207
    MIXING:  cpu time    1.2494: real time    1.2493
    --------------------------------------------
      LOOP:  cpu time  304.3351: real time  304.3403

 eigenvalue-minimisations  :   698
 total energy-change (2. order) : 0.7713267E-01  (-0.9522865E-02)
 number of electron     559.9999963 magnetization 
 augmentation part      241.1335914 magnetization 

 Broyden mixing:
  rms(total) = 0.45369E+00    rms(broyden)= 0.45355E+00
  rms(prec ) = 0.52356E+00
  weight for this iteration     100.00

 eigenvalues of (default mixing * dielectric matrix)
  average eigenvalue GAMMA=   0.3605
[...]
 -0.007  -0.012   0.004   0.004   0.006  -0.007  -0.011   0.003
 -0.012  -0.020   0.006   0.008   0.009  -0.011  -0.019   0.006
 -0.015  -0.005   0.013   0.000   0.022  -0.014  -0.005   0.012
  0.000  -0.023  -0.006  -0.015  -0.000   0.000  -0.022  -0.006
 -0.022   0.000   0.009  -0.005  -0.016  -0.022   0.000   0.008
 -0.017  -0.006   0.015   0.000   0.027  -0.017  -0.006   0.015
  0.000  -0.028  -0.007  -0.018   0.000   0.000  -0.027  -0.007
 -0.027   0.000   0.010  -0.006  -0.019  -0.026   0.000   0.010
 total augmentation occupancy for first ion, spin component:           1
  1.532  -0.032   0.004   0.018   0.027   0.078  -0.008  -0.002   0.035  -0.011   0.091  -0.033   0.012   0.001   0.002  -0.019
 -0.032   1.401   0.029   0.072   0.001  -0.007   0.071   0.011  -0.014  -0.007   0.215  -0.064   0.019   0.000   0.002  -0.006
  0.004   0.029   1.540   0.003   0.002  -0.002   0.012   0.074  -0.013   0.017  -0.053   0.017  -0.003  -0.007  -0.005   0.016
  0.018   0.072   0.003   1.336   0.043   0.033  -0.013  -0.013   0.092  -0.022  -0.080   0.022  -0.001  -0.009  -0.004   0.001
  0.027   0.001   0.002   0.043   1.437  -0.011  -0.008   0.016  -0.022   0.068  -0.091   0.031  -0.003  -0.009  -0.010   0.027
  0.078  -0.007  -0.002   0.033  -0.011   0.217   0.018  -0.002  -0.045   0.004  -0.047   0.001   0.017  -0.010   0.035  -0.004
 -0.008   0.071   0.012  -0.013  -0.008   0.018   0.264  -0.023  -0.003   0.006  -0.109   0.007  -0.001   0.052  -0.010  -0.000
 -0.002   0.011   0.074  -0.013   0.016  -0.002  -0.023   0.215   0.014  -0.019   0.028  -0.001  -0.012   0.009  -0.018   0.003
  0.035  -0.014  -0.013   0.092  -0.022  -0.045  -0.003   0.014   0.261   0.007   0.042  -0.003  -0.009   0.036   0.004   0.000
 -0.011  -0.007   0.017  -0.022   0.068   0.004   0.006  -0.019   0.007   0.259   0.045  -0.002  -0.038   0.002   0.049   0.007
  0.091   0.215  -0.053  -0.080  -0.091  -0.047  -0.109   0.028   0.042   0.045   0.946  -0.140   0.084   0.013   0.064  -0.013
 -0.033  -0.064   0.017   0.022   0.031   0.001   0.007  -0.001  -0.003  -0.002  -0.140   0.023  -0.014  -0.003  -0.010   0.003
  0.012   0.019  -0.003  -0.001  -0.003   0.017  -0.001  -0.012  -0.009  -0.038   0.084  -0.014   0.029  -0.008  -0.004  -0.003
  0.001   0.000  -0.007  -0.009  -0.009  -0.010   0.052   0.009   0.036   0.002   0.013  -0.003  -0.008   0.036   0.004   0.000
  0.002   0.002  -0.005  -0.004  -0.010   0.035  -0.010  -0.018   0.004   0.049   0.064  -0.010  -0.004   0.004   0.035  -0.000
 -0.019  -0.006   0.016   0.001   0.027  -0.004  -0.000   0.003   0.000   0.007  -0.013   0.003  -0.003   0.000  -0.000   0.001
  0.001  -0.028  -0.007  -0.018   0.001   0.001  -0.008  -0.001  -0.006  -0.000  -0.003   0.001   0.000  -0.003  -0.000   0.000
 -0.028   0.001   0.012  -0.005  -0.019  -0.006   0.001   0.003  -0.001  -0.007  -0.008   0.001  -0.000  -0.000  -0.003   0.000


------------------------ aborting loop because EDIFF is reached ----------------------------------------


    CHARGE:  cpu time   25.9817: real time   25.9815
    FORLOC:  cpu time    6.8588: real time    6.8588
    FORNL :  cpu time   66.3861: real time   66.3856
    STRESS:  cpu time  201.7287: real time  201.7374
    FORCOR:  cpu time   22.5148: real time   22.5148
    FORHAR:  cpu time    9.8972: real time    9.8972
    MIXING:  cpu time    4.0198: real time    4.0199
    OFIELD:  cpu time    0.0000: real time    0.0000

  FORCE on cell =-STRESS in cart. coord.  units (eV):
  Direction    XX          YY          ZZ          XY          YZ          ZX
  --------------------------------------------------------------------------------------
  Alpha Z    75.25432    75.25432    75.25432
  Ewald   45113.78719 44646.74682 49389.09727    75.29333  -361.27599  -955.45446
  Hartree 59943.94407 59573.46088 63997.83095    69.59277  -313.28600  -890.05777
  E(xc)   -2904.65476 -2906.23575 -2904.10256     0.09604    -0.50819    -0.39707
  Local  ************************************  -143.55753   668.75940  1834.67010
  n-local  -883.64124  -884.38429  -890.55826    -0.74572    -0.18613     3.37207
  augment  4101.12608  4107.01813  4102.93168    -0.08274     1.70295     0.38937
  Kinetic  7805.31076  7819.18510  7795.25194    -0.70897     5.10435     6.52703
  Fock        0.00000     0.00000     0.00000     0.00000     0.00000     0.00000
  -------------------------------------------------------------------------------------
  Total    -116.80071  -113.20625  -108.87941    -0.11282     0.31040    -0.95072
  in kB      -6.93094    -6.71765    -6.46089    -0.00669     0.01842    -0.05642
  external pressure =       -6.70 kB  Pullay stress =        0.00 kB


 VOLUME and BASIS-vectors are now :
 -----------------------------------------------------------------------------
  energy-cutoff  :      400.00
  volume of cell :    27000.00
      direct lattice vectors                 reciprocal lattice vectors
    30.000000000  0.000000000  0.000000000     0.033333333  0.000000000  0.000000000
     0.000000000 30.000000000  0.000000000     0.000000000  0.033333333  0.000000000
     0.000000000  0.000000000 30.000000000     0.000000000  0.000000000  0.033333333

  length of vectors
    30.000000000 30.000000000 30.000000000     0.033333333  0.033333333  0.033333333


 FORCES acting on ions
    electron-ion (+dipol)            ewald-force                    non-local-force                 convergence-correction
 -----------------------------------------------------------------------------------------------
   0.393E+03 0.975E+03 0.425E+03   -.391E+03 -.972E+03 -.425E+03   -.149E+01 -.182E+01 -.200E+00   0.155E-02 0.150E-02 -.416E-02
   -.975E+03 -.395E+03 0.421E+03   0.972E+03 0.393E+03 -.421E+03   0.184E+01 0.150E+01 -.222E+00   -.518E-03 0.606E-03 0.131E-02
   -.397E+03 0.974E+03 0.423E+03   0.395E+03 -.972E+03 -.423E+03   0.149E+01 -.184E+01 -.203E+00   0.522E-02 0.415E-02 -.505E-02
   0.974E+03 -.397E+03 0.426E+03   -.971E+03 0.394E+03 -.426E+03   -.182E+01 0.148E+01 -.188E+00   0.213E-02 0.392E-02 -.389E-02
   -.158E+01 0.588E+03 0.969E+03   0.158E+01 -.587E+03 -.966E+03   0.357E-03 -.308E+00 -.235E+01   0.508E-02 0.258E-02 -.127E-02
   -.438E+02 0.647E+03 -.923E+03   0.439E+02 -.647E+03 0.919E+03   -.748E-01 -.164E+00 0.235E+01   0.136E-02 0.341E-02 0.759E-03
   -.339E+01 0.114E+04 0.106E+02   0.337E+01 -.114E+04 -.106E+02   0.877E-02 -.310E+01 -.301E-01   0.174E-02 -.249E-02 -.156E-02
   0.114E+04 -.161E+01 0.159E+02   -.114E+04 0.158E+01 -.158E+02   -.310E+01 0.180E-01 -.693E-01   -.229E-02 0.600E-03 0.238E-02
   -.114E+04 -.628E+00 0.596E+01   0.113E+04 0.618E+00 -.596E+01   0.311E+01 0.370E-02 -.185E-02   -.178E-02 0.236E-02 -.729E-03
   -.253E+01 -.114E+04 0.783E+01   0.251E+01 0.114E+04 -.781E+01   0.658E-02 0.311E+01 -.140E-01   0.159E-02 -.197E-02 -.121E-02
   -.581E+03 0.579E+03 0.816E+03   0.578E+03 -.577E+03 -.813E+03   0.156E+01 -.155E+01 -.221E+01   0.110E-02 0.229E-02 0.219E-03
   -.606E+03 0.592E+03 -.801E+03   0.604E+03 -.590E+03 0.798E+03   0.156E+01 -.156E+01 0.222E+01   0.274E-02 0.456E-02 -.887E-03
   0.578E+03 -.580E+03 0.817E+03   -.576E+03 0.578E+03 -.814E+03   -.155E+01 0.156E+01 -.221E+01   0.362E-02 0.263E-02 -.326E-02
   0.595E+03 -.632E+03 -.785E+03   -.593E+03 0.630E+03 0.781E+03   -.154E+01 0.153E+01 0.226E+01   0.140E-03 0.116E-02 -.134E-03
   0.578E+03 0.580E+03 0.818E+03   -.576E+03 -.577E+03 -.814E+03   -.156E+01 -.156E+01 -.221E+01   0.238E-02 0.587E-03 -.282E-02
   0.616E+03 0.658E+03 -.754E+03   -.614E+03 -.656E+03 0.750E+03   -.149E+01 -.143E+01 0.222E+01   -.157E-02 0.110E-02 0.131E-02
   -.580E+03 -.580E+03 0.815E+03   0.578E+03 0.577E+03 -.812E+03   0.156E+01 0.155E+01 -.221E+01   0.149E-03 -.300E-04 0.106E-02
   -.599E+03 -.593E+03 -.804E+03   0.596E+03 0.591E+03 0.800E+03   0.157E+01 0.157E+01 0.221E+01   0.370E-02 -.171E-02 -.138E-02
   0.391E+03 0.996E+03 -.391E+03   -.389E+03 -.993E+03 0.391E+03   -.151E+01 -.181E+01 0.273E+00   -.151E-02 -.409E-03 0.130E-02
   -.984E+03 -.398E+03 -.407E+03   0.981E+03 0.396E+03 0.407E+03   0.184E+01 0.151E+01 0.212E+00   0.301E-03 0.557E-03 -.232E-02
   -.325E+03 0.322E+03 0.463E+03   0.326E+03 -.322E+03 -.464E+03   -.374E+00 0.368E+00 0.518E+00   0.418E-02 0.163E-02 -.283E-02
   0.974E+03 0.395E+03 0.427E+03   -.971E+03 -.393E+03 -.427E+03   -.182E+01 -.148E+01 -.193E+00   0.121E-02 -.129E-02 -.278E-02
   -.397E+03 -.975E+03 0.422E+03   0.394E+03 0.972E+03 -.422E+03   0.149E+01 0.184E+01 -.219E+00   0.196E-02 -.298E-02 -.680E-03
   -.407E+03 0.986E+03 -.400E+03   0.405E+03 -.984E+03 0.400E+03   0.154E+01 -.183E+01 0.193E+00   0.375E-02 0.186E-02 -.473E-03
   0.993E+03 -.411E+03 -.385E+03   -.990E+03 0.408E+03 0.384E+03   -.188E+01 0.163E+01 0.204E+00   -.208E-03 0.159E-02 0.250E-02
   -.975E+03 0.394E+03 0.422E+03   0.972E+03 -.392E+03 -.421E+03   0.184E+01 -.150E+01 -.214E+00   -.103E-02 0.228E-02 -.664E-03
   0.393E+03 -.976E+03 0.424E+03   -.391E+03 0.973E+03 -.423E+03   -.150E+01 0.183E+01 -.204E+00   0.355E-02 -.127E-02 -.239E-02
   0.320E+03 0.322E+03 0.466E+03   -.320E+03 -.323E+03 -.467E+03   0.355E+00 0.353E+00 0.545E+00   0.567E-02 0.251E-02 -.280E-02
   -.644E+01 0.646E+03 0.205E+02   0.642E+01 -.647E+03 -.205E+02   0.165E-01 0.706E+00 -.494E-01   0.424E-02 0.638E-02 -.237E-02
   -.589E+03 -.423E+00 0.968E+03   0.588E+03 0.414E+00 -.964E+03   0.287E+00 0.532E-02 -.238E+01   0.142E-02 0.343E-04 0.206E-02
   -.622E+03 -.428E+01 -.951E+03   0.621E+03 0.429E+01 0.947E+03   0.405E+00 -.115E-01 0.244E+01   0.204E-02 0.315E-02 -.247E-02
   0.587E+03 -.565E+00 0.970E+03   -.586E+03 0.562E+00 -.966E+03   -.321E+00 0.211E-03 -.235E+01   0.373E-02 0.250E-02 -.320E-02
   0.725E+03 -.585E+02 -.799E+03   -.722E+03 0.576E+02 0.798E+03   -.174E+01 0.567E+00 0.472E+00   0.131E-03 0.114E-02 0.689E-03
   0.764E+03 0.769E+03 0.216E+02   -.762E+03 -.767E+03 -.216E+02   -.118E+01 -.116E+01 -.570E-01   -.294E-03 0.412E-03 0.359E-04
   -.767E+03 -.765E+03 0.923E+01   0.765E+03 0.763E+03 -.928E+01   0.113E+01 0.113E+01 0.289E-01   0.242E-02 -.115E-02 -.149E-02
   -.769E+03 0.764E+03 0.110E+02   0.767E+03 -.762E+03 -.110E+02   0.114E+01 -.114E+01 0.246E-02   0.358E-02 0.481E-02 -.283E-02
   0.763E+03 -.770E+03 0.170E+02   -.761E+03 0.768E+03 -.169E+02   -.117E+01 0.115E+01 -.453E-01   0.363E-02 0.340E-02 0.363E-03
   -.172E+01 -.545E+00 0.107E+04   0.166E+01 0.531E+00 -.107E+04   0.333E-01 0.849E-02 -.163E+01   0.319E-02 0.126E-02 0.537E-03
   -.148E+03 -.472E+02 -.951E+03   0.145E+03 0.461E+02 0.951E+03   0.176E+01 0.640E+00 -.334E+00   0.354E-02 0.131E-02 -.727E-03
   0.999E+03 0.403E+03 -.377E+03   -.996E+03 -.400E+03 0.377E+03   -.181E+01 -.159E+01 0.313E+00   -.774E-03 0.565E-03 0.261E-02
   -.403E+03 -.985E+03 -.405E+03   0.401E+03 0.982E+03 0.404E+03   0.152E+01 0.183E+01 0.197E+00   0.217E-02 -.156E-02 -.324E-02
   -.347E+03 0.328E+03 -.422E+03   0.348E+03 -.329E+03 0.423E+03   -.384E+00 0.311E+00 -.536E+00   0.362E-02 0.580E-02 -.159E-02
   0.320E+03 -.324E+03 0.465E+03   -.320E+03 0.325E+03 -.466E+03   0.355E+00 -.360E+00 0.538E+00   0.568E-02 0.287E-02 -.286E-02
   0.316E+03 0.339E+03 -.382E+03   -.316E+03 -.340E+03 0.382E+03   0.379E+00 0.515E+00 -.153E+00   0.300E-02 0.371E-02 0.468E-03
   -.986E+03 0.396E+03 -.406E+03   0.983E+03 -.394E+03 0.406E+03   0.182E+01 -.150E+01 0.223E+00   0.465E-03 0.535E-02 -.248E-02
   0.392E+03 -.991E+03 -.400E+03   -.390E+03 0.988E+03 0.400E+03   -.150E+01 0.182E+01 0.245E+00   0.147E-02 0.122E-02 -.197E-02
   -.325E+03 -.323E+03 0.462E+03   0.325E+03 0.324E+03 -.463E+03   -.375E+00 -.374E+00 0.502E+00   0.361E-02 0.229E-02 -.260E-03
   0.644E+03 -.273E+01 0.277E+02   -.645E+03 0.272E+01 -.276E+02   0.727E+00 0.582E-02 -.822E-01   0.475E-02 0.111E-02 0.935E-03
   -.648E+03 -.131E+01 0.130E+02   0.649E+03 0.131E+01 -.130E+02   -.715E+00 0.882E-03 -.131E-02   0.341E-02 0.251E-02 -.984E-03
   -.144E+01 -.588E+03 0.969E+03   0.143E+01 0.588E+03 -.965E+03   0.485E-02 0.298E+00 -.237E+01   0.196E-02 0.100E-02 -.729E-03
   -.223E+02 -.631E+03 -.943E+03   0.223E+02 0.630E+03 0.939E+03   -.209E-01 0.276E+00 0.240E+01   0.235E-02 0.190E-03 -.453E-03
   -.806E+01 -.256E+01 0.258E+02   0.805E+01 0.255E+01 -.258E+02   0.364E-02 0.120E-02 -.191E-01   0.516E-02 0.220E-02 -.152E-02
   0.317E+03 -.350E+03 -.401E+03   -.317E+03 0.350E+03 0.402E+03   0.378E+00 -.499E+00 -.344E+00   0.328E-02 0.132E-02 -.924E-03
   -.343E+03 -.335E+03 -.427E+03   0.343E+03 0.335E+03 0.428E+03   -.331E+00 -.275E+00 -.640E+00   0.501E-02 -.414E-03 -.241E-02
   -.511E+01 -.648E+03 0.162E+02   0.510E+01 0.649E+03 -.162E+02   0.994E-02 -.712E+00 -.216E-01   0.428E-02 0.877E-03 -.189E-02
   0.230E+02 0.333E+02 -.273E+03   -.159E+02 -.303E+02 0.251E+03   -.562E+01 -.134E+01 0.156E+02   0.568E-03 0.807E-03 0.165E-03
   0.197E+03 0.722E+02 -.834E+03   -.216E+03 -.781E+02 0.896E+03   0.177E+02 0.516E+01 -.568E+02   0.489E-03 0.863E-03 0.291E-03
 -----------------------------------------------------------------------------------------------
   -.127E+02 -.545E+01 0.446E+02   0.284E-12 -.213E-12 -.205E-11   0.126E+02 0.537E+01 -.446E+02   0.122E+00 0.837E-01 -.567E-01
 
 
 POSITION                                       TOTAL-FORCE (eV/Angst)
 -----------------------------------------------------------------------------------
     13.37281      9.84801     12.50759         0.699900      1.112777      0.292326
     20.15199     16.62719     12.50759        -1.107174     -0.697657      0.291271
     16.62719      9.84801     12.50759        -0.697044      1.111539      0.284103
      9.84801     16.62719     12.50759         1.117573     -0.698601      0.284249
     15.00000     11.47521     10.20639        -0.002047      0.410515      1.278559
     15.00000     11.47521     19.79360         0.046092      0.378971     -1.304719
     15.00000      8.28283     15.00000        -0.009203      1.505680      0.011514
      8.28283     15.00000     15.00000         1.509479     -0.013479      0.035269
     21.71717     15.00000     15.00000        -1.511335     -0.003286      0.002090
     15.00000     21.71717     15.00000        -0.008105     -1.509305      0.005843
     18.35858     11.64142     10.25025        -0.754598      0.749107      1.074839
     18.35858     11.64142     19.74975        -0.754323      0.750850     -1.072329
     11.64142     18.35858     10.25025         0.751956     -0.755377      1.073000
     11.64142     18.35858     19.74975         0.727704     -0.709938     -1.066093
     11.64142     11.64142     10.25025         0.754072      0.755539      1.071967
     11.64142     11.64142     19.74975         0.723004      0.702498     -1.052105
     18.35858     18.35858     10.25025        -0.752637     -0.748006      1.076158
     18.35858     18.35858     19.74975        -0.757217     -0.754376     -1.070678
     13.37281      9.84801     17.49241         0.709173      1.092588     -0.315801
     20.15199     16.62719     17.49241        -1.115363     -0.695073     -0.288481
     16.73751     13.26249     12.54279         0.113537     -0.114494     -0.150154
      9.84801     13.37281     12.50759         1.115723      0.698671      0.291314
     16.62719     20.15199     12.50759        -0.696836     -1.109751      0.290785
     16.62719      9.84801     17.49241        -0.707851      1.110295     -0.280821
      9.84801     16.62719     17.49241         1.067795     -0.688807     -0.327770
     20.15199     13.37281     12.50759        -1.106652      0.698237      0.288588
     13.37281     20.15199     12.50759         0.700465     -1.109670      0.290329
     13.26249     13.26249     12.54279        -0.112062     -0.115439     -0.155443
     15.00000     11.52498     15.00000        -0.002056     -0.222561     -0.002378
     18.52479     15.00000     10.20639        -0.400838     -0.003733      1.281554
     18.52479     15.00000     19.79360        -0.408470      0.008874     -1.294234
     11.47521     15.00000     10.20640         0.414515     -0.000339      1.278534
     11.47521     15.00000     19.79360         1.422201     -0.323972     -0.748055
     11.49535     11.49535     15.00000         0.837677      0.832409      0.006428
     18.50465     18.50465     15.00000        -0.815365     -0.822032     -0.017641
     18.50465     11.49535     15.00000        -0.821713      0.828792     -0.007314
     11.49535     18.50465     15.00000         0.835944     -0.827634      0.005521
     15.00000     15.00000     10.04368        -0.015517     -0.004387      1.182936
     15.00000     15.00000     19.95633        -1.283388     -0.511662     -0.203247
      9.84801     13.37281     17.49241         1.041384      0.692910     -0.376996
     16.62719     20.15199     17.49241        -0.702861     -1.112223     -0.283622
     16.73751     13.26249     17.45721         0.152789     -0.131292      0.129442
     13.26249     16.73751     12.54279        -0.110866      0.114447     -0.157185
     13.26249     13.26249     17.45721        -0.117642     -0.165120      0.044987
     20.15199     13.37281     17.49241        -1.109548      0.696230     -0.290780
     13.37281     20.15199     17.49241         0.702432     -1.104240     -0.299162
     16.73751     16.73751     12.54279         0.113825      0.116099     -0.147600
     11.52498     15.00000     15.00000        -0.225651     -0.001496      0.003139
     18.47502     15.00000     15.00000         0.214277      0.003720      0.000437
     15.00000     18.52480     10.20639        -0.004535     -0.407461      1.279818
     15.00000     18.52480     19.79360         0.031559     -0.369772     -1.305636
     15.00000     15.00000     15.00000        -0.004154     -0.004481     -0.002343
     13.26249     16.73751     17.45721        -0.129055      0.168813      0.097045
     16.73751     16.73751     17.45721         0.122807      0.110742      0.156073
     15.00000     18.47502     15.00000         0.005711      0.223020     -0.006940
     13.12652     14.40621     21.13974         1.433702      1.646016     -6.643432
     12.79870     14.30231     22.21404        -1.121191     -0.783680      5.462841
 -----------------------------------------------------------------------------------
    total drift:                               -0.004130      0.004354     -0.006888


--------------------------------------------------------------------------------------------------------



  FREE ENERGIE OF THE ION-ELECTRON SYSTEM (eV)
  ---------------------------------------------------
  free  energy   TOTEN  =      -175.07769334 eV

  energy  without entropy=     -175.04228391  energy(sigma->0) =     -175.06884098
 


--------------------------------------------------------------------------------------------------------


    POTLOK:  cpu time   14.1040: real time   14.1041


--------------------------------------------------------------------------------------------------------


     LOOP+:  cpu time18186.8279: real time18187.4486
    4ORBIT:  cpu time    0.0000: real time    0.0000

 total amount of memory used by VASP MPI-rank0  5486942. kBytes
=======================================================================

   base      :      30000. kBytes
   nonlr-proj:      17127. kBytes
   fftplans  :     924480. kBytes
   grid      :    1872000. kBytes
   one-center:        886. kBytes
   wavefun   :    2642449. kBytes
 
  
  
 General timing and accounting informations for this job:
 ========================================================
  
                  Total CPU time used (sec):    18263.539
                            User time (sec):    17228.328
                          System time (sec):     1035.211
                         Elapsed time (sec):    18264.294
  
                   Maximum memory used (kb):     7179080.
                   Average memory used (kb):           0.
  
                          Minor page faults:    811078450
                          Major page faults:            0
                 Voluntary context switches:          546
