<?xml version="1.0" encoding="ISO-8859-1"?>
<modeling>
 <generator>
  <i name="program" type="string">vasp </i>
  <i name="version" type="string">5.4.4.18Apr17-6-g9f103f2a35  </i>
  <i name="subversion" type="string">(build Sep 03 2018 23:53:05) complex            parallel </i>
  <i name="platform" type="string">LinuxIFC </i>
  <i name="date" type="string">2021 11 27 </i>
  <i name="time" type="string">05:19:05 </i>
 </generator>
 <incar>
  <i type="string" name="SYSTEM"> 6_Pd100_top_free_z(O)</i>
  <i type="int" name="ISTART">     0</i>
  <i type="string" name="PREC">normal   			! encut=max(enmax), ngx,y,z</i>
  <i type="string" name="ALGO"> Fast     			! Mix RMM-DIIS and Dav</i>
  <i type="logical" name="ADDGRID"> F  </i>
  <i type="int" name="ISPIN">     1</i>
  <i type="int" name="ICHARG">     2</i>
  <i type="int" name="NELM">   100</i>
  <i type="int" name="NELMIN">     6</i>
  <i type="int" name="IBRION">     2</i>
  <i name="EDIFF">      0.00010000</i>
  <i name="EDIFFG">     -0.05000000</i>
  <i type="int" name="NSW">     0</i>
  <i type="int" name="ISIF">     2</i>
  <i type="int" name="ISYM">     2</i>
  <i name="ENCUT">    400.00000000</i>
  <i type="string" name="LREAL"> Auto     			! Auto or A projection done</i>
  <i type="int" name="ISMEAR">     2</i>
  <i name="SIGMA">      0.20000000</i>
  <i type="logical" name="LWAVE"> F  </i>
  <i type="logical" name="LCHARG"> F  </i>
  <v type="int" name="KPOINT_BSE">    -1     0     0     0</v>
  <i type="int" name="MAXMEM"> 10000</i>
  <i type="int" name="NELM">   100</i>
  <i type="string" name="GGA"> RP         			! Revised PBE</i>
 </incar>
 <structure name="primitive_cell" >
  <crystal>
   <varray name="basis" >
    <v>      30.00000000       0.00000000       0.00000000 </v>
    <v>       0.00000000      30.00000000       0.00000000 </v>
    <v>       0.00000000       0.00000000      30.00000000 </v>
   </varray>
   <i name="volume">  27000.00000000 </i>
   <varray name="rec_basis" >
    <v>       0.03333333       0.00000000       0.00000000 </v>
    <v>       0.00000000       0.03333333       0.00000000 </v>
    <v>       0.00000000       0.00000000       0.03333333 </v>
   </varray>
  </crystal>
  <varray name="positions" >
   <v>       0.44576020       0.32826710       0.41691983 </v>
   <v>      -0.44576020       0.32826710       0.41691983 </v>
   <v>      -0.50000000       0.38250690       0.34021317 </v>
   <v>      -0.50000000       0.27609440      -0.50000000 </v>
   <v>       0.38804720       0.38804720       0.34167483 </v>
   <v>      -0.50000000       0.38416601      -0.50000000 </v>
   <v>       0.44208300       0.44208300       0.41809300 </v>
   <v>       0.38317830       0.38317830      -0.50000000 </v>
   <v>      -0.44208300       0.44208300       0.41809300 </v>
   <v>       0.44576020       0.32826710      -0.41691977 </v>
   <v>       0.32826705       0.44576024       0.41691983 </v>
   <v>      -0.38804720       0.38804720       0.34167483 </v>
   <v>      -0.38317830       0.38317830      -0.50000000 </v>
   <v>      -0.50000000      -0.50000000       0.33478917 </v>
   <v>      -0.50000000      -0.50000000      -0.50000000 </v>
   <v>      -0.44576020       0.32826710      -0.41691977 </v>
   <v>       0.38250685      -0.49999995       0.34021317 </v>
   <v>       0.44208300       0.44208300      -0.41809297 </v>
   <v>       0.38416599      -0.49999998      -0.50000000 </v>
   <v>      -0.44208300       0.44208300      -0.41809297 </v>
   <v>       0.44208298      -0.44208298       0.41809300 </v>
   <v>       0.32826705       0.44576024      -0.41691977 </v>
   <v>      -0.50000000       0.38250690      -0.34021320 </v>
   <v>       0.32826712      -0.44576022       0.41691983 </v>
   <v>      -0.38250685      -0.49999995       0.34021317 </v>
   <v>      -0.32826705       0.44576024       0.41691983 </v>
   <v>       0.27609443       0.49999998      -0.50000000 </v>
   <v>       0.38804720       0.38804720      -0.34167487 </v>
   <v>      -0.38416599      -0.49999998      -0.50000000 </v>
   <v>      -0.44208298      -0.44208298       0.41809300 </v>
   <v>       0.44208298      -0.44208298      -0.41809297 </v>
   <v>      -0.38804720       0.38804720      -0.34167487 </v>
   <v>       0.38804722      -0.38804722       0.34167483 </v>
   <v>       0.38250685      -0.49999995      -0.34021320 </v>
   <v>       0.32826712      -0.44576022      -0.41691977 </v>
   <v>      -0.32826705       0.44576024      -0.41691977 </v>
   <v>       0.50000000      -0.38250681       0.34021317 </v>
   <v>      -0.50000000      -0.38416596      -0.50000000 </v>
   <v>      -0.44208298      -0.44208298      -0.41809297 </v>
   <v>      -0.50000000      -0.50000000      -0.33478913 </v>
   <v>       0.38317828      -0.38317828      -0.50000000 </v>
   <v>      -0.32826712      -0.44576022       0.41691983 </v>
   <v>       0.43755060       0.48020700      -0.29534203 </v>
   <v>      -0.27609443       0.49999998      -0.50000000 </v>
   <v>      -0.38804722      -0.38804722       0.34167483 </v>
   <v>      -0.38250685      -0.49999995      -0.34021320 </v>
   <v>       0.44576027      -0.32826707       0.41691983 </v>
   <v>      -0.38317828      -0.38317828      -0.50000000 </v>
   <v>       0.42662350       0.47674370      -0.25953193 </v>
   <v>      -0.32826712      -0.44576022      -0.41691977 </v>
   <v>      -0.44576027      -0.32826707       0.41691983 </v>
   <v>       0.38804722      -0.38804722      -0.34167487 </v>
   <v>      -0.50000000      -0.38250681      -0.34021320 </v>
   <v>       0.44576027      -0.32826707      -0.41691977 </v>
   <v>      -0.44576027      -0.32826707      -0.41691977 </v>
   <v>      -0.50000000      -0.27609445       0.50000000 </v>
   <v>      -0.38804722      -0.38804722      -0.34167487 </v>
  </varray>
 </structure>
 <varray name="primitive_index" >
  <v type="int" >        1 </v>
  <v type="int" >        3 </v>
  <v type="int" >        5 </v>
  <v type="int" >        7 </v>
  <v type="int" >       15 </v>
  <v type="int" >       29 </v>
  <v type="int" >       28 </v>
  <v type="int" >       34 </v>
  <v type="int" >       21 </v>
  <v type="int" >       19 </v>
  <v type="int" >       22 </v>
  <v type="int" >       11 </v>
  <v type="int" >       36 </v>
  <v type="int" >       38 </v>
  <v type="int" >       52 </v>
  <v type="int" >       24 </v>
  <v type="int" >       32 </v>
  <v type="int" >       44 </v>
  <v type="int" >       48 </v>
  <v type="int" >       42 </v>
  <v type="int" >       43 </v>
  <v type="int" >       40 </v>
  <v type="int" >        6 </v>
  <v type="int" >        4 </v>
  <v type="int" >       30 </v>
  <v type="int" >       26 </v>
  <v type="int" >        8 </v>
  <v type="int" >       16 </v>
  <v type="int" >       49 </v>
  <v type="int" >       47 </v>
  <v type="int" >       53 </v>
  <v type="int" >       12 </v>
  <v type="int" >       13 </v>
  <v type="int" >       33 </v>
  <v type="int" >       25 </v>
  <v type="int" >       45 </v>
  <v type="int" >       50 </v>
  <v type="int" >       55 </v>
  <v type="int" >       54 </v>
  <v type="int" >       39 </v>
  <v type="int" >       37 </v>
  <v type="int" >        2 </v>
  <v type="int" >       56 </v>
  <v type="int" >        9 </v>
  <v type="int" >       17 </v>
  <v type="int" >       31 </v>
  <v type="int" >       27 </v>
  <v type="int" >       35 </v>
  <v type="int" >       57 </v>
  <v type="int" >       20 </v>
  <v type="int" >       23 </v>
  <v type="int" >       14 </v>
  <v type="int" >       51 </v>
  <v type="int" >       46 </v>
  <v type="int" >       41 </v>
  <v type="int" >       10 </v>
  <v type="int" >       18 </v>
 </varray>
 <kpoints>
  <generation param="Monkhorst-Pack">
   <v type="int" name="divisions">       1        1        1 </v>
   <v name="usershift">      0.00000000       0.00000000       0.00000000 </v>
   <v name="genvec1">      1.00000000       0.00000000       0.00000000 </v>
   <v name="genvec2">      0.00000000       1.00000000       0.00000000 </v>
   <v name="genvec3">      0.00000000       0.00000000       1.00000000 </v>
   <v name="shift">      0.00000000       0.00000000       0.00000000 </v>
  </generation>
  <varray name="kpointlist" >
   <v>       0.00000000       0.00000000       0.00000000 </v>
  </varray>
  <varray name="weights" >
   <v>       1.00000000 </v>
  </varray>
 </kpoints>
 <parameters>
  <separator name="general" >
   <i type="string" name="SYSTEM">6_Pd100_top_free_z(O)</i>
   <i type="logical" name="LCOMPAT"> F  </i>
  </separator>
  <separator name="electronic" >
   <i type="string" name="PREC">normal</i>
   <i name="ENMAX">    400.00000000</i>
   <i name="ENAUG">    644.87300000</i>
   <i name="EDIFF">      0.00010000</i>
   <i type="int" name="IALGO">    68</i>
   <i type="int" name="IWAVPR">    10</i>
   <i type="int" name="NBANDS">   336</i>
   <i name="NELECT">    560.00000000</i>
   <i type="int" name="TURBO">     0</i>
   <i type="int" name="IRESTART">     0</i>
   <i type="int" name="NREBOOT">     0</i>
   <i type="int" name="NMIN">     0</i>
   <i name="EREF">      0.00000000</i>
   <separator name="electronic smearing" >
    <i type="int" name="ISMEAR">     2</i>
    <i name="SIGMA">      0.20000000</i>
    <i name="KSPACING">      0.50000000</i>
    <i type="logical" name="KGAMMA"> T  </i>
   </separator>
   <separator name="electronic projectors" >
    <i type="logical" name="LREAL"> T  </i>
    <v name="ROPT">     -0.00050000     -0.00050000     -0.00050000</v>
    <i type="int" name="LMAXPAW">  -100</i>
    <i type="int" name="LMAXMIX">     2</i>
    <i type="logical" name="NLSPLINE"> F  </i>
   </separator>
   <separator name="electronic startup" >
    <i type="int" name="ISTART">     0</i>
    <i type="int" name="ICHARG">     2</i>
    <i type="int" name="INIWAV">     1</i>
   </separator>
   <separator name="electronic spin" >
    <i type="int" name="ISPIN">     1</i>
    <i type="logical" name="LNONCOLLINEAR"> F  </i>
    <v name="MAGMOM">      1.00000000      1.00000000      1.00000000      1.00000000      1.00000000      1.00000000      1.00000000      1.00000000      1.00000000      1.00000000      1.00000000      1.00000000      1.00000000      1.00000000      1.00000000      1.00000000      1.00000000      1.00000000      1.00000000      1.00000000
      1.00000000      1.00000000      1.00000000      1.00000000      1.00000000      1.00000000      1.00000000      1.00000000      1.00000000      1.00000000      1.00000000      1.00000000      1.00000000      1.00000000      1.00000000      1.00000000      1.00000000      1.00000000      1.00000000      1.00000000
      1.00000000      1.00000000      1.00000000      1.00000000      1.00000000      1.00000000      1.00000000      1.00000000      1.00000000      1.00000000      1.00000000      1.00000000      1.00000000      1.00000000      1.00000000      1.00000000      1.00000000</v>
    <i name="NUPDOWN">     -1.00000000</i>
    <i type="logical" name="LSORBIT"> F  </i>
    <v name="SAXIS">      0.00000000      0.00000000      1.00000000</v>
    <i type="logical" name="LSPIRAL"> F  </i>
    <v name="QSPIRAL">      0.00000000      0.00000000      0.00000000</v>
    <i type="logical" name="LZEROZ"> F  </i>
   </separator>
   <separator name="electronic exchange-correlation" >
    <i type="logical" name="LASPH"> F  </i>
    <i type="logical" name="LMETAGGA"> F  </i>
   </separator>
   <separator name="electronic convergence" >
    <i type="int" name="NELM">   100</i>
    <i type="int" name="NELMDL">    -5</i>
    <i type="int" name="NELMIN">     6</i>
    <i name="ENINI">    400.00000000</i>
    <separator name="electronic convergence detail" >
     <i type="logical" name="LDIAG"> T  </i>
     <i type="logical" name="LSUBROT"> F  </i>
     <i name="WEIMIN">      0.00000000</i>
     <i name="EBREAK">      0.00000007</i>
     <i name="DEPER">      0.30000000</i>
     <i type="int" name="NRMM">     4</i>
     <i name="TIME">      0.40000000</i>
    </separator>
   </separator>
   <separator name="electronic mixer" >
    <i name="AMIX">      0.40000000</i>
    <i name="BMIX">      1.00000000</i>
    <i name="AMIN">      0.10000000</i>
    <i name="AMIX_MAG">      1.60000000</i>
    <i name="BMIX_MAG">      1.00000000</i>
    <separator name="electronic mixer details" >
     <i type="int" name="IMIX">     4</i>
     <i type="logical" name="MIXFIRST"> F  </i>
     <i type="int" name="MAXMIX">   -45</i>
     <i name="WC">    100.00000000</i>
     <i type="int" name="INIMIX">     1</i>
     <i type="int" name="MIXPRE">     1</i>
     <i type="int" name="MREMOVE">     5</i>
    </separator>
   </separator>
   <separator name="electronic dipolcorrection" >
    <i type="logical" name="LDIPOL"> F  </i>
    <i type="logical" name="LMONO"> F  </i>
    <i type="int" name="IDIPOL">     0</i>
    <i name="EPSILON">      1.00000000</i>
    <v name="DIPOL">   -100.00000000   -100.00000000   -100.00000000</v>
    <i name="EFIELD">      0.00000000</i>
   </separator>
  </separator>
  <separator name="grids" >
   <i type="int" name="NGX">   150</i>
   <i type="int" name="NGY">   150</i>
   <i type="int" name="NGZ">   150</i>
   <i type="int" name="NGXF">   300</i>
   <i type="int" name="NGYF">   300</i>
   <i type="int" name="NGZF">   300</i>
   <i type="logical" name="ADDGRID"> F  </i>
  </separator>
  <separator name="ionic" >
   <i type="int" name="NSW">     0</i>
   <i type="int" name="IBRION">    -1</i>
   <i type="int" name="MDALGO">     0</i>
   <i type="int" name="ISIF">     2</i>
   <i name="PSTRESS">      0.00000000</i>
   <i name="EDIFFG">     -0.05000000</i>
   <i type="int" name="NFREE">     1</i>
   <i name="POTIM">      0.50000000</i>
   <i name="SMASS">     -3.00000000</i>
   <i name="SCALEE">      1.00000000</i>
  </separator>
  <separator name="ionic md" >
   <i name="TEBEG">      0.00010000</i>
   <i name="TEEND">      0.00010000</i>
   <i type="int" name="NBLOCK">     1</i>
   <i type="int" name="KBLOCK">     1</i>
   <i type="int" name="NPACO">   256</i>
   <i name="APACO">     16.00000000</i>
  </separator>
  <separator name="symmetry" >
   <i type="int" name="ISYM">     2</i>
   <i name="SYMPREC">      0.00001000</i>
  </separator>
  <separator name="dos" >
   <i type="int" name="LORBIT">     0</i>
   <v name="RWIGS">     -1.00000000     -1.00000000     -1.00000000</v>
   <i type="int" name="NEDOS">   301</i>
   <i name="EMIN">     10.00000000</i>
   <i name="EMAX">    -10.00000000</i>
   <i name="EFERMI">      0.00000000</i>
  </separator>
  <separator name="writing" >
   <i type="int" name="NWRITE">     2</i>
   <i type="logical" name="LWAVE"> F  </i>
   <i type="logical" name="LDOWNSAMPLE"> F  </i>
   <i type="logical" name="LCHARG"> F  </i>
   <i type="logical" name="LPARD"> F  </i>
   <i type="logical" name="LVTOT"> F  </i>
   <i type="logical" name="LVHAR"> F  </i>
   <i type="logical" name="LELF"> F  </i>
   <i type="logical" name="LOPTICS"> F  </i>
   <v name="STM">      0.00000000      0.00000000      0.00000000      0.00000000      0.00000000      0.00000000      0.00000000</v>
  </separator>
  <separator name="performance" >
   <i type="int" name="NPAR">     1</i>
   <i type="int" name="NSIM">     4</i>
   <i type="int" name="NBLK">    -1</i>
   <i type="logical" name="LPLANE"> T  </i>
   <i type="logical" name="LSCALAPACK"> T  </i>
   <i type="logical" name="LSCAAWARE"> F  </i>
   <i type="logical" name="LSCALU"> F  </i>
   <i type="logical" name="LASYNC"> F  </i>
   <i type="logical" name="LORBITALREAL"> F  </i>
  </separator>
  <separator name="miscellaneous" >
   <i type="int" name="IDIOT">     3</i>
   <i type="int" name="ISPECIAL">     0</i>
   <i type="logical" name="LMUSIC"> F  </i>
   <v name="POMASS">    106.42000000     12.01100000     16.00000000</v>
   <v name="DARWINR">      0.00000000      0.00000000      0.00000000</v>
   <v name="DARWINV">      1.00000000      1.00000000      1.00000000</v>
   <i type="logical" name="LCORR"> T  </i>
  </separator>
  <i type="logical" name="GGA_COMPAT"> T  </i>
  <i type="logical" name="LBERRY"> F  </i>
  <i type="int" name="ICORELEVEL">     0</i>
  <i type="logical" name="LDAU"> F  </i>
  <i type="int" name="I_CONSTRAINED_M">     0</i>
  <separator name="electronic exchange-correlation" >
   <i type="string" name="GGA">RP</i>
   <i type="int" name="VOSKOWN">     0</i>
   <i type="logical" name="LHFCALC"> F  </i>
   <i type="string" name="PRECFOCK"></i>
   <i type="logical" name="LSYMGRAD"> F  </i>
   <i type="logical" name="LHFONE"> F  </i>
   <i type="logical" name="LRHFCALC"> F  </i>
   <i type="logical" name="LTHOMAS"> F  </i>
   <i type="logical" name="LMODELHF"> F  </i>
   <i name="ENCUT4O">     -1.00000000</i>
   <i type="int" name="EXXOEP">     0</i>
   <i type="int" name="FOURORBIT">     0</i>
   <i name="AEXX">      0.00000000</i>
   <i name="HFALPHA">      0.00000000</i>
   <i name="MCALPHA">      0.00000000</i>
   <i name="ALDAX">      1.00000000</i>
   <i name="AGGAX">      1.00000000</i>
   <i name="ALDAC">      1.00000000</i>
   <i name="AGGAC">      1.00000000</i>
   <i type="int" name="NKREDX">     1</i>
   <i type="int" name="NKREDY">     1</i>
   <i type="int" name="NKREDZ">     1</i>
   <i type="logical" name="SHIFTRED"> F  </i>
   <i type="logical" name="ODDONLY"> F  </i>
   <i type="logical" name="EVENONLY"> F  </i>
   <i type="int" name="LMAXFOCK">     0</i>
   <i type="int" name="NMAXFOCKAE">     0</i>
   <i type="logical" name="LFOCKAEDFT"> F  </i>
   <i name="HFSCREEN">      0.00000000</i>
   <i name="HFSCREENC">      0.00000000</i>
   <i type="int" name="NBANDSGWLOW">     0</i>
  </separator>
  <separator name="vdW DFT" >
   <i type="logical" name="LUSE_VDW"> F  </i>
   <i name="Zab_VDW">     -0.84910000</i>
   <i name="PARAM1">      0.12340000</i>
   <i name="PARAM2">      1.00000000</i>
   <i name="PARAM3">      0.00000000</i>
  </separator>
  <separator name="model GW" >
   <i type="int" name="MODEL_GW">     0</i>
   <i name="MODEL_EPS0">    284.21052632</i>
   <i name="MODEL_ALPHA">      1.00000000</i>
  </separator>
  <separator name="linear response parameters" >
   <i type="logical" name="LEPSILON"> F  </i>
   <i type="logical" name="LRPA"> F  </i>
   <i type="logical" name="LNABLA"> F  </i>
   <i type="logical" name="LVEL"> F  </i>
   <i type="int" name="KINTER">     0</i>
   <i name="CSHIFT">      0.10000000</i>
   <i name="OMEGAMAX">     -1.00000000</i>
   <i name="DEG_THRESHOLD">      0.00200000</i>
   <i name="RTIME">     -0.10000000</i>
   <i name="WPLASMAI">      0.00000000</i>
   <v name="DFIELD">      0.00000000      0.00000000      0.00000000</v>
   <v name="WPLASMA">      0.00000000      0.00000000      0.00000000      0.00000000      0.00000000      0.00000000      0.00000000      0.00000000      0.00000000</v>
  </separator>
  <separator name="orbital magnetization" >
   <i type="logical" name="NUCIND"> F  </i>
   <v name="MAGPOS">      0.00000000      0.00000000      0.00000000</v>
   <i type="logical" name="LNICSALL"> T  </i>
   <i type="logical" name="ORBITALMAG"> F  </i>
   <i type="logical" name="LMAGBLOCH"> F  </i>
   <i type="logical" name="LCHIMAG"> F  </i>
   <i type="logical" name="LGAUGE"> T  </i>
   <i type="int" name="MAGATOM">     0</i>
   <v name="MAGDIPOL">      0.00000000      0.00000000      0.00000000</v>
   <v name="AVECCONST">      0.00000000      0.00000000      0.00000000</v>
  </separator>
  <separator name="response functions" >
   <i type="logical" name="LADDER"> F  </i>
   <i type="logical" name="LRPAFORCE"> F  </i>
   <i type="logical" name="LFXC"> F  </i>
   <i type="logical" name="LHARTREE"> T  </i>
   <i type="int" name="IBSE">     0</i>
   <v type="int" name="KPOINT">    -1     0     0     0</v>
   <i type="logical" name="LTCTE"> F  </i>
   <i type="logical" name="LTETE"> F  </i>
   <i type="logical" name="LTRIPLET"> F  </i>
   <i type="logical" name="LFXCEPS"> F  </i>
   <i type="logical" name="LFXHEG"> F  </i>
   <i type="int" name="NATURALO">     2</i>
   <i type="logical" name="L2ORDER"> F  </i>
   <i type="logical" name="LMP2LT"> F  </i>
   <i type="logical" name="LUSEW"> F  </i>
   <i name="ENCUTGW">     -2.00000000</i>
   <i name="ENCUTGWSOFT">     -2.00000000</i>
   <i name="ENCUTLF">     -1.00000000</i>
   <i type="int" name="LMAXMP2">    -1</i>
   <i name="SCISSOR">      0.00000000</i>
   <i type="int" name="NOMEGA">     0</i>
   <i type="int" name="NOMEGAR">     0</i>
   <i type="int" name="NBANDSGW">    -1</i>
   <i type="int" name="NBANDSO">    -1</i>
   <i type="int" name="NBANDSV">    -1</i>
   <i type="int" name="NELM">   100</i>
   <i type="int" name="NELMHF">     1</i>
   <i type="int" name="DIM">     3</i>
   <i type="int" name="ANTIRES">     0</i>
   <i name="OMEGAMAX">    -30.00000000</i>
   <i name="OMEGAMIN">    -30.00000000</i>
   <i name="OMEGATL">   -200.00000000</i>
   <i type="int" name="OMEGAGRID">   140</i>
   <i name="CSHIFT">     -0.10000000</i>
   <i type="logical" name="SELFENERGY"> F  </i>
   <i type="logical" name="LSPECTRAL"> F  </i>
   <i type="logical" name="LSPECTRALGW"> F  </i>
   <i type="logical" name="LSINGLES"> F  </i>
   <i type="logical" name="LFERMIGW"> F  </i>
   <i type="logical" name="ODDONLYGW"> F  </i>
   <i type="logical" name="EVENONLYGW"> F  </i>
   <i type="int" name="NKREDLFX">     1</i>
   <i type="int" name="NKREDLFY">     1</i>
   <i type="int" name="NKREDLFZ">     1</i>
   <i type="int" name="MAXMEM"> 10000</i>
   <i type="int" name="TELESCOPE">     0</i>
   <i type="int" name="TAUPAR">     1</i>
   <i type="int" name="OMEGAPAR">    -1</i>
   <i name="LAMBDA">      1.00000000</i>
  </separator>
  <separator name="External order field" >
   <i name="OFIELD_KAPPA">      0.00000000</i>
   <v name="OFIELD_K">      0.00000000      0.00000000      0.00000000</v>
   <i name="OFIELD_Q6_NEAR">      0.00000000</i>
   <i name="OFIELD_Q6_FAR">      0.00000000</i>
   <i name="OFIELD_A">      0.00000000</i>
  </separator>
 </parameters>
 <atominfo>
  <atoms>      57 </atoms>
  <types>       3 </types>
  <array name="atoms" >
   <dimension dim="1">ion</dimension>
   <field type="string">element</field>
   <field type="int">atomtype</field>
   <set>
    <rc><c>Pd</c><c>   1</c></rc>
    <rc><c>Pd</c><c>   1</c></rc>
    <rc><c>Pd</c><c>   1</c></rc>
    <rc><c>Pd</c><c>   1</c></rc>
    <rc><c>Pd</c><c>   1</c></rc>
    <rc><c>Pd</c><c>   1</c></rc>
    <rc><c>Pd</c><c>   1</c></rc>
    <rc><c>Pd</c><c>   1</c></rc>
    <rc><c>Pd</c><c>   1</c></rc>
    <rc><c>Pd</c><c>   1</c></rc>
    <rc><c>Pd</c><c>   1</c></rc>
    <rc><c>Pd</c><c>   1</c></rc>
    <rc><c>Pd</c><c>   1</c></rc>
    <rc><c>Pd</c><c>   1</c></rc>
    <rc><c>Pd</c><c>   1</c></rc>
    <rc><c>Pd</c><c>   1</c></rc>
    <rc><c>Pd</c><c>   1</c></rc>
    <rc><c>Pd</c><c>   1</c></rc>
    <rc><c>Pd</c><c>   1</c></rc>
    <rc><c>Pd</c><c>   1</c></rc>
    <rc><c>Pd</c><c>   1</c></rc>
    <rc><c>Pd</c><c>   1</c></rc>
    <rc><c>Pd</c><c>   1</c></rc>
    <rc><c>Pd</c><c>   1</c></rc>
    <rc><c>Pd</c><c>   1</c></rc>
    <rc><c>Pd</c><c>   1</c></rc>
    <rc><c>Pd</c><c>   1</c></rc>
    <rc><c>Pd</c><c>   1</c></rc>
    <rc><c>Pd</c><c>   1</c></rc>
    <rc><c>Pd</c><c>   1</c></rc>
    <rc><c>Pd</c><c>   1</c></rc>
    <rc><c>Pd</c><c>   1</c></rc>
    <rc><c>Pd</c><c>   1</c></rc>
    <rc><c>Pd</c><c>   1</c></rc>
    <rc><c>Pd</c><c>   1</c></rc>
    <rc><c>Pd</c><c>   1</c></rc>
    <rc><c>Pd</c><c>   1</c></rc>
    <rc><c>Pd</c><c>   1</c></rc>
    <rc><c>Pd</c><c>   1</c></rc>
    <rc><c>Pd</c><c>   1</c></rc>
    <rc><c>Pd</c><c>   1</c></rc>
    <rc><c>Pd</c><c>   1</c></rc>
    <rc><c>Pd</c><c>   1</c></rc>
    <rc><c>Pd</c><c>   1</c></rc>
    <rc><c>Pd</c><c>   1</c></rc>
    <rc><c>Pd</c><c>   1</c></rc>
    <rc><c>Pd</c><c>   1</c></rc>
    <rc><c>Pd</c><c>   1</c></rc>
    <rc><c>Pd</c><c>   1</c></rc>
    <rc><c>Pd</c><c>   1</c></rc>
    <rc><c>Pd</c><c>   1</c></rc>
    <rc><c>Pd</c><c>   1</c></rc>
    <rc><c>Pd</c><c>   1</c></rc>
    <rc><c>Pd</c><c>   1</c></rc>
    <rc><c>Pd</c><c>   1</c></rc>
    <rc><c>C </c><c>   2</c></rc>
    <rc><c>O </c><c>   3</c></rc>
   </set>
  </array>
  <array name="atomtypes" >
   <dimension dim="1">type</dimension>
   <field type="int">atomspertype</field>
   <field type="string">element</field>
   <field>mass</field>
   <field>valence</field>
   <field type="string">pseudopotential</field>
   <set>
    <rc><c>  55</c><c>Pd</c><c>    106.42000000</c><c>     10.00000000</c><c>  PAW_PBE Pd 04Jan2005                  </c></rc>
    <rc><c>   1</c><c>C </c><c>     12.01100000</c><c>      4.00000000</c><c>  PAW_PBE C 08Apr2002                   </c></rc>
    <rc><c>   1</c><c>O </c><c>     16.00000000</c><c>      6.00000000</c><c>  PAW_PBE O 08Apr2002                   </c></rc>
   </set>
  </array>
 </atominfo>
 <structure name="initialpos" >
  <crystal>
   <varray name="basis" >
    <v>      30.00000000       0.00000000       0.00000000 </v>
    <v>       0.00000000      30.00000000       0.00000000 </v>
    <v>       0.00000000       0.00000000      30.00000000 </v>
   </varray>
   <i name="volume">  27000.00000000 </i>
   <varray name="rec_basis" >
    <v>       0.03333333       0.00000000       0.00000000 </v>
    <v>       0.00000000       0.03333333       0.00000000 </v>
    <v>       0.00000000       0.00000000       0.03333333 </v>
   </varray>
  </crystal>
  <varray name="positions" >
   <v>       0.44576020       0.32826710       0.41691983 </v>
   <v>       0.67173288       0.55423978       0.41691983 </v>
   <v>       0.55423980       0.32826710       0.41691983 </v>
   <v>       0.32826712       0.55423978       0.41691983 </v>
   <v>       0.50000000       0.38250690       0.34021317 </v>
   <v>       0.50000000       0.38250690       0.65978680 </v>
   <v>       0.50000000       0.27609440       0.50000000 </v>
   <v>       0.27609443       0.49999998       0.50000000 </v>
   <v>       0.72390557       0.49999998       0.50000000 </v>
   <v>       0.50000000       0.72390555       0.50000000 </v>
   <v>       0.61195280       0.38804720       0.34167483 </v>
   <v>       0.61195280       0.38804720       0.65832513 </v>
   <v>       0.38804722       0.61195278       0.34167483 </v>
   <v>       0.38804722       0.61195278       0.65832513 </v>
   <v>       0.38804720       0.38804720       0.34167483 </v>
   <v>       0.38804720       0.38804720       0.65832513 </v>
   <v>       0.61195278       0.61195278       0.34167483 </v>
   <v>       0.61195278       0.61195278       0.65832513 </v>
   <v>       0.44576020       0.32826710       0.58308023 </v>
   <v>       0.67173288       0.55423978       0.58308023 </v>
   <v>       0.55791699       0.44208301       0.41809300 </v>
   <v>       0.32826705       0.44576024       0.41691983 </v>
   <v>       0.55423973       0.67173293       0.41691983 </v>
   <v>       0.55423980       0.32826710       0.58308023 </v>
   <v>       0.32826712       0.55423978       0.58308023 </v>
   <v>       0.67173295       0.44576024       0.41691983 </v>
   <v>       0.44576027       0.67173293       0.41691983 </v>
   <v>       0.44208301       0.44208301       0.41809300 </v>
   <v>       0.50000000       0.38416601       0.50000000 </v>
   <v>       0.61749315       0.50000005       0.34021317 </v>
   <v>       0.61749315       0.50000005       0.65978680 </v>
   <v>       0.38250685       0.50000005       0.34021317 </v>
   <v>       0.38250685       0.50000005       0.65978680 </v>
   <v>       0.38317830       0.38317830       0.50000000 </v>
   <v>       0.61682172       0.61682172       0.50000000 </v>
   <v>       0.61682170       0.38317830       0.50000000 </v>
   <v>       0.38317828       0.61682172       0.50000000 </v>
   <v>       0.50000000       0.50000000       0.33478917 </v>
   <v>       0.50000000       0.50000000       0.66521087 </v>
   <v>       0.32826705       0.44576024       0.58308023 </v>
   <v>       0.55423973       0.67173293       0.58308023 </v>
   <v>       0.55791699       0.44208301       0.58190703 </v>
   <v>       0.44208298       0.55791702       0.41809300 </v>
   <v>       0.44208301       0.44208301       0.58190703 </v>
   <v>       0.67173295       0.44576024       0.58308023 </v>
   <v>       0.44576027       0.67173293       0.58308023 </v>
   <v>       0.55791702       0.55791702       0.41809300 </v>
   <v>       0.38416599       0.50000002       0.50000000 </v>
   <v>       0.61583401       0.50000002       0.50000000 </v>
   <v>       0.50000000       0.61749319       0.34021317 </v>
   <v>       0.50000000       0.61749319       0.65978680 </v>
   <v>       0.50000000       0.50000000       0.50000000 </v>
   <v>       0.44208298       0.55791702       0.58190703 </v>
   <v>       0.55791702       0.55791702       0.58190703 </v>
   <v>       0.50000000       0.61583404       0.50000000 </v>
   <v>       0.43755060       0.48020700       0.70465797 </v>
   <v>       0.42662350       0.47674370       0.74046807 </v>
  </varray>
  <varray name="selective"  type="logical" >
   <v type="logical" >  F  F  F </v>
   <v type="logical" >  F  F  F </v>
   <v type="logical" >  F  F  F </v>
   <v type="logical" >  F  F  F </v>
   <v type="logical" >  F  F  F </v>
   <v type="logical" >  F  F  F </v>
   <v type="logical" >  F  F  F </v>
   <v type="logical" >  F  F  F </v>
   <v type="logical" >  F  F  F </v>
   <v type="logical" >  F  F  F </v>
   <v type="logical" >  F  F  F </v>
   <v type="logical" >  F  F  F </v>
   <v type="logical" >  F  F  F </v>
   <v type="logical" >  F  F  F </v>
   <v type="logical" >  F  F  F </v>
   <v type="logical" >  F  F  F </v>
   <v type="logical" >  F  F  F </v>
   <v type="logical" >  F  F  F </v>
   <v type="logical" >  F  F  F </v>
   <v type="logical" >  F  F  F </v>
   <v type="logical" >  F  F  F </v>
   <v type="logical" >  F  F  F </v>
   <v type="logical" >  F  F  F </v>
   <v type="logical" >  F  F  F </v>
   <v type="logical" >  F  F  F </v>
   <v type="logical" >  F  F  F </v>
   <v type="logical" >  F  F  F </v>
   <v type="logical" >  F  F  F </v>
   <v type="logical" >  F  F  F </v>
   <v type="logical" >  F  F  F </v>
   <v type="logical" >  F  F  F </v>
   <v type="logical" >  F  F  F </v>
   <v type="logical" >  F  F  F </v>
   <v type="logical" >  F  F  F </v>
   <v type="logical" >  F  F  F </v>
   <v type="logical" >  F  F  F </v>
   <v type="logical" >  F  F  F </v>
   <v type="logical" >  F  F  F </v>
   <v type="logical" >  F  F  F </v>
   <v type="logical" >  F  F  F </v>
   <v type="logical" >  F  F  F </v>
   <v type="logical" >  F  F  F </v>
   <v type="logical" >  F  F  F </v>
   <v type="logical" >  F  F  F </v>
   <v type="logical" >  F  F  F </v>
   <v type="logical" >  F  F  F </v>
   <v type="logical" >  F  F  F </v>
   <v type="logical" >  F  F  F </v>
   <v type="logical" >  F  F  F </v>
   <v type="logical" >  F  F  F </v>
   <v type="logical" >  F  F  F </v>
   <v type="logical" >  F  F  F </v>
   <v type="logical" >  F  F  F </v>
   <v type="logical" >  F  F  F </v>
   <v type="logical" >  F  F  F </v>
   <v type="logical" >  F  F  F </v>
   <v type="logical" >  F  F  F </v>
  </varray>
  <nose>
   <v>      -3.00000000       0.00000000       0.00010000       0.00010000 </v>
  </nose>
 </structure>
 <calculation>
  <scstep>
   <time name="dav">  366.80  366.87</time>
   <time name="total">  381.38  381.45</time>
   <energy>
    <i name="alphaZ">     75.25431677 </i>
    <i name="ewald"> 139149.73714437 </i>
    <i name="hartreedc">-182511.04999347 </i>
    <i name="XCdc">  -1702.86360431 </i>
    <i name="pawpsdc">  44873.02882129 </i>
    <i name="pawaedc"> -41398.84523641 </i>
    <i name="eentropy">     -0.01174849 </i>
    <i name="bandstr">    817.60833847 </i>
    <i name="atom">  45086.50549395 </i>
    <i name="e_fr_energy">   4389.36353217 </i>
    <i name="e_wo_entrp">   4389.37528066 </i>
    <i name="e_0_energy">   4389.36646929 </i>
   </energy>
  </scstep>
  <scstep>
   <time name="dav">  589.81  589.81</time>
   <time name="total">  589.81  589.81</time>
   <energy>
    <i name="e_fr_energy">   2010.08511100 </i>
    <i name="e_wo_entrp">   2010.08969898 </i>
    <i name="e_0_energy">   2010.08625800 </i>
   </energy>
  </scstep>
  <scstep>
   <time name="dav">  505.14  505.15</time>
   <time name="total">  505.14  505.15</time>
   <energy>
    <i name="e_fr_energy">    229.18146233 </i>
    <i name="e_wo_entrp">    229.22009089 </i>
    <i name="e_0_energy">    229.19111947 </i>
   </energy>
  </scstep>
  <scstep>
   <time name="dav">  433.08  433.08</time>
   <time name="total">  433.08  433.09</time>
   <energy>
    <i name="e_fr_energy">   -134.80775819 </i>
    <i name="e_wo_entrp">   -134.83504291 </i>
    <i name="e_0_energy">   -134.81457937 </i>
   </energy>
  </scstep>
  <scstep>
   <time name="dav">  524.84  524.85</time>
   <time name="total">  550.44  550.44</time>
   <energy>
    <i name="e_fr_energy">   -180.10751353 </i>
    <i name="e_wo_entrp">   -180.58965606 </i>
    <i name="e_0_energy">   -180.22804916 </i>
   </energy>
  </scstep>
  <scstep>
   <time name="diag">   68.57   68.57</time>
   <time name="diis">  193.66  193.66</time>
   <time name="orth">   13.66   13.66</time>
   <time name="total">  315.36  315.36</time>
   <energy>
    <i name="e_fr_energy">   -179.25738777 </i>
    <i name="e_wo_entrp">   -179.06956029 </i>
    <i name="e_0_energy">   -179.21043090 </i>
   </energy>
  </scstep>
  <scstep>
   <time name="diag">   68.17   68.18</time>
   <time name="diis">  224.82  224.84</time>
   <time name="orth">   13.32   13.32</time>
   <time name="total">  345.34  345.38</time>
   <energy>
    <i name="e_fr_energy">   -182.80080368 </i>
    <i name="e_wo_entrp">   -182.78042956 </i>
    <i name="e_0_energy">   -182.79571015 </i>
   </energy>
  </scstep>
  <scstep>
   <time name="diag">   67.64   67.65</time>
   <time name="diis">  217.57  217.58</time>
   <time name="orth">   13.23   13.23</time>
   <time name="total">  337.87  337.90</time>
   <energy>
    <i name="e_fr_energy">   -182.80963583 </i>
    <i name="e_wo_entrp">   -182.70442578 </i>
    <i name="e_0_energy">   -182.78333332 </i>
   </energy>
  </scstep>
  <scstep>
   <time name="diag">   70.37   70.38</time>
   <time name="diis">  189.94  189.95</time>
   <time name="orth">   13.33   13.33</time>
   <time name="total">  313.68  313.69</time>
   <energy>
    <i name="e_fr_energy">   -181.52245994 </i>
    <i name="e_wo_entrp">   -181.53887707 </i>
    <i name="e_0_energy">   -181.52656422 </i>
   </energy>
  </scstep>
  <scstep>
   <time name="diag">   69.26   69.26</time>
   <time name="diis">  193.13  193.14</time>
   <time name="orth">   13.14   13.14</time>
   <time name="total">  314.79  314.80</time>
   <energy>
    <i name="e_fr_energy">   -179.61301729 </i>
    <i name="e_wo_entrp">   -179.52127853 </i>
    <i name="e_0_energy">   -179.59008260 </i>
   </energy>
  </scstep>
  <scstep>
   <time name="diag">   68.14   68.14</time>
   <time name="diis">  189.68  189.70</time>
   <time name="orth">   13.20   13.20</time>
   <time name="total">  309.87  309.89</time>
   <energy>
    <i name="e_fr_energy">   -178.09677502 </i>
    <i name="e_wo_entrp">   -178.15551417 </i>
    <i name="e_0_energy">   -178.11145980 </i>
   </energy>
  </scstep>
  <scstep>
   <time name="diag">   69.33   69.33</time>
   <time name="diis">  191.27  191.28</time>
   <time name="orth">   13.60   13.60</time>
   <time name="total">  313.69  313.70</time>
   <energy>
    <i name="e_fr_energy">   -177.52274041 </i>
    <i name="e_wo_entrp">   -177.45908011 </i>
    <i name="e_0_energy">   -177.50682534 </i>
   </energy>
  </scstep>
  <scstep>
   <time name="diag">   69.66   69.66</time>
   <time name="diis">  190.85  190.86</time>
   <time name="orth">   13.44   13.44</time>
   <time name="total">  314.23  314.24</time>
   <energy>
    <i name="e_fr_energy">   -177.03481308 </i>
    <i name="e_wo_entrp">   -176.98068074 </i>
    <i name="e_0_energy">   -177.02128000 </i>
   </energy>
  </scstep>
  <scstep>
   <time name="diag">   68.40   68.40</time>
   <time name="diis">  185.94  185.94</time>
   <time name="orth">   13.44   13.44</time>
   <time name="total">  307.18  307.19</time>
   <energy>
    <i name="e_fr_energy">   -176.50325610 </i>
    <i name="e_wo_entrp">   -176.42414807 </i>
    <i name="e_0_energy">   -176.48347909 </i>
   </energy>
  </scstep>
  <scstep>
   <time name="diag">   68.71   68.71</time>
   <time name="diis">  185.29  185.30</time>
   <time name="orth">   13.67   13.67</time>
   <time name="total">  307.50  307.52</time>
   <energy>
    <i name="e_fr_energy">   -176.41339754 </i>
    <i name="e_wo_entrp">   -176.40600580 </i>
    <i name="e_0_energy">   -176.41154960 </i>
   </energy>
  </scstep>
  <scstep>
   <time name="diag">   69.11   69.12</time>
   <time name="diis">  185.57  185.59</time>
   <time name="orth">   13.24   13.25</time>
   <time name="total">  307.93  307.96</time>
   <energy>
    <i name="e_fr_energy">   -176.35857862 </i>
    <i name="e_wo_entrp">   -176.38377035 </i>
    <i name="e_0_energy">   -176.36487656 </i>
   </energy>
  </scstep>
  <scstep>
   <time name="diag">   69.13   69.14</time>
   <time name="diis">  185.55  185.55</time>
   <time name="orth">   13.47   13.47</time>
   <time name="total">  308.15  308.16</time>
   <energy>
    <i name="e_fr_energy">   -176.01971346 </i>
    <i name="e_wo_entrp">   -176.09711143 </i>
    <i name="e_0_energy">   -176.03906296 </i>
   </energy>
  </scstep>
  <scstep>
   <time name="diag">   69.18   69.18</time>
   <time name="diis">  181.45  181.45</time>
   <time name="orth">   13.51   13.51</time>
   <time name="total">  304.34  304.36</time>
   <energy>
    <i name="e_fr_energy">   -175.94485823 </i>
    <i name="e_wo_entrp">   -175.98104352 </i>
    <i name="e_0_energy">   -175.95390455 </i>
   </energy>
  </scstep>
  <scstep>
   <time name="diag">   69.18   69.19</time>
   <time name="diis">  182.37  182.38</time>
   <time name="orth">   13.44   13.44</time>
   <time name="total">  304.75  304.76</time>
   <energy>
    <i name="e_fr_energy">   -175.78643144 </i>
    <i name="e_wo_entrp">   -175.81123269 </i>
    <i name="e_0_energy">   -175.79263175 </i>
   </energy>
  </scstep>
  <scstep>
   <time name="diag">   69.17   69.17</time>
   <time name="diis">  181.49  181.50</time>
   <time name="orth">   13.48   13.48</time>
   <time name="total">  303.98  304.00</time>
   <energy>
    <i name="e_fr_energy">   -175.55097237 </i>
    <i name="e_wo_entrp">   -175.53058185 </i>
    <i name="e_0_energy">   -175.54587474 </i>
   </energy>
  </scstep>
  <scstep>
   <time name="diag">   68.99   68.99</time>
   <time name="diis">  181.78  181.79</time>
   <time name="orth">   13.45   13.45</time>
   <time name="total">  304.30  304.32</time>
   <energy>
    <i name="e_fr_energy">   -175.40502686 </i>
    <i name="e_wo_entrp">   -175.37516257 </i>
    <i name="e_0_energy">   -175.39756079 </i>
   </energy>
  </scstep>
  <scstep>
   <time name="diag">   68.40   68.40</time>
   <time name="diis">  183.84  183.84</time>
   <time name="orth">   13.76   13.76</time>
   <time name="total">  305.84  305.84</time>
   <energy>
    <i name="e_fr_energy">   -175.28188347 </i>
    <i name="e_wo_entrp">   -175.24065205 </i>
    <i name="e_0_energy">   -175.27157562 </i>
   </energy>
  </scstep>
  <scstep>
   <time name="diag">   67.55   67.55</time>
   <time name="diis">  183.20  183.20</time>
   <time name="orth">   13.56   13.56</time>
   <time name="total">  304.34  304.34</time>
   <energy>
    <i name="e_fr_energy">   -175.20475080 </i>
    <i name="e_wo_entrp">   -175.16542279 </i>
    <i name="e_0_energy">   -175.19491880 </i>
   </energy>
  </scstep>
  <scstep>
   <time name="diag">   68.13   68.13</time>
   <time name="diis">  182.62  182.62</time>
   <time name="orth">   13.59   13.59</time>
   <time name="total">  304.72  304.73</time>
   <energy>
    <i name="e_fr_energy">   -175.14831017 </i>
    <i name="e_wo_entrp">   -175.09411879 </i>
    <i name="e_0_energy">   -175.13476233 </i>
   </energy>
  </scstep>
  <scstep>
   <time name="diag">   68.57   68.57</time>
   <time name="diis">  181.97  181.97</time>
   <time name="orth">   13.72   13.72</time>
   <time name="total">  304.94  304.94</time>
   <energy>
    <i name="e_fr_energy">   -175.12618170 </i>
    <i name="e_wo_entrp">   -175.07436336 </i>
    <i name="e_0_energy">   -175.11322712 </i>
   </energy>
  </scstep>
  <scstep>
   <time name="diag">   68.35   68.35</time>
   <time name="diis">  181.77  181.77</time>
   <time name="orth">   13.76   13.76</time>
   <time name="total">  304.50  304.50</time>
   <energy>
    <i name="e_fr_energy">   -175.09360225 </i>
    <i name="e_wo_entrp">   -175.05035112 </i>
    <i name="e_0_energy">   -175.08278946 </i>
   </energy>
  </scstep>
  <scstep>
   <time name="diag">   67.90   67.90</time>
   <time name="diis">  181.84  181.85</time>
   <time name="orth">   13.59   13.59</time>
   <time name="total">  304.16  304.16</time>
   <energy>
    <i name="e_fr_energy">   -175.09007751 </i>
    <i name="e_wo_entrp">   -175.04892651 </i>
    <i name="e_0_energy">   -175.07978976 </i>
   </energy>
  </scstep>
  <scstep>
   <time name="diag">   68.11   68.11</time>
   <time name="diis">  181.85  181.85</time>
   <time name="orth">   13.54   13.54</time>
   <time name="total">  304.31  304.31</time>
   <energy>
    <i name="e_fr_energy">   -175.06629383 </i>
    <i name="e_wo_entrp">   -175.03380214 </i>
    <i name="e_0_energy">   -175.05817090 </i>
   </energy>
  </scstep>
  <scstep>
   <time name="diag">   69.31   69.31</time>
   <time name="diis">  182.51  182.51</time>
   <time name="orth">   13.69   13.69</time>
   <time name="total">  306.66  306.66</time>
   <energy>
    <i name="e_fr_energy">   -175.06079827 </i>
    <i name="e_wo_entrp">   -175.02983232 </i>
    <i name="e_0_energy">   -175.05305679 </i>
   </energy>
  </scstep>
  <scstep>
   <time name="diag">   69.72   69.72</time>
   <time name="diis">  186.01  186.01</time>
   <time name="orth">   13.67   13.67</time>
   <time name="total">  310.51  310.52</time>
   <energy>
    <i name="e_fr_energy">   -175.05771055 </i>
    <i name="e_wo_entrp">   -175.02407008 </i>
    <i name="e_0_energy">   -175.04930043 </i>
   </energy>
  </scstep>
  <scstep>
   <time name="diag">   68.58   68.58</time>
   <time name="diis">  186.52  186.53</time>
   <time name="orth">   13.48   13.48</time>
   <time name="total">  309.45  309.45</time>
   <energy>
    <i name="e_fr_energy">   -175.05273881 </i>
    <i name="e_wo_entrp">   -175.01857136 </i>
    <i name="e_0_energy">   -175.04419695 </i>
   </energy>
  </scstep>
  <scstep>
   <time name="diag">   68.63   68.63</time>
   <time name="diis">  186.96  186.97</time>
   <time name="orth">   13.46   13.46</time>
   <time name="total">  310.57  310.58</time>
   <energy>
    <i name="e_fr_energy">   -175.04914716 </i>
    <i name="e_wo_entrp">   -175.01175733 </i>
    <i name="e_0_energy">   -175.03979970 </i>
   </energy>
  </scstep>
  <scstep>
   <time name="diag">   68.00   68.00</time>
   <time name="diis">  185.82  185.82</time>
   <time name="orth">   13.89   13.89</time>
   <time name="total">  309.01  309.02</time>
   <energy>
    <i name="e_fr_energy">   -175.05034100 </i>
    <i name="e_wo_entrp">   -175.01547947 </i>
    <i name="e_0_energy">   -175.04162562 </i>
   </energy>
  </scstep>
  <scstep>
   <time name="diag">   68.16   68.16</time>
   <time name="diis">  184.95  184.95</time>
   <time name="orth">   14.23   14.23</time>
   <time name="total">  309.22  309.23</time>
   <energy>
    <i name="e_fr_energy">   -175.04927147 </i>
    <i name="e_wo_entrp">   -175.01331308 </i>
    <i name="e_0_energy">   -175.04028187 </i>
   </energy>
  </scstep>
  <scstep>
   <time name="diag">   68.12   68.12</time>
   <time name="diis">  183.12  183.13</time>
   <time name="orth">   14.01   14.01</time>
   <time name="total">  307.05  307.06</time>
   <energy>
    <i name="e_fr_energy">   -175.04975172 </i>
    <i name="e_wo_entrp">   -175.01274177 </i>
    <i name="e_0_energy">   -175.04049923 </i>
   </energy>
  </scstep>
  <scstep>
   <time name="diag">   67.98   67.99</time>
   <time name="diis">  182.21  182.21</time>
   <time name="orth">   13.72   13.72</time>
   <time name="total">  305.47  305.48</time>
   <energy>
    <i name="e_fr_energy">   -175.05085987 </i>
    <i name="e_wo_entrp">   -175.01420384 </i>
    <i name="e_0_energy">   -175.04169587 </i>
   </energy>
  </scstep>
  <scstep>
   <time name="diag">   67.38   67.38</time>
   <time name="diis">  183.24  183.24</time>
   <time name="orth">   13.95   13.95</time>
   <time name="total">  306.62  306.63</time>
   <energy>
    <i name="e_fr_energy">   -175.05375307 </i>
    <i name="e_wo_entrp">   -175.01874559 </i>
    <i name="e_0_energy">   -175.04500120 </i>
   </energy>
  </scstep>
  <scstep>
   <time name="diag">   67.35   67.35</time>
   <time name="diis">  182.79  182.79</time>
   <time name="orth">   13.86   13.86</time>
   <time name="total">  305.93  305.94</time>
   <energy>
    <i name="e_fr_energy">   -175.05631453 </i>
    <i name="e_wo_entrp">   -175.02260102 </i>
    <i name="e_0_energy">   -175.04788615 </i>
   </energy>
  </scstep>
  <scstep>
   <time name="diag">   67.30   67.31</time>
   <time name="diis">  144.78  144.79</time>
   <time name="orth">   13.69   13.69</time>
   <time name="total">  267.86  267.86</time>
   <energy>
    <i name="e_fr_energy">   -175.05806920 </i>
    <i name="e_wo_entrp">   -175.02263199 </i>
    <i name="e_0_energy">   -175.04920990 </i>
   </energy>
  </scstep>
  <scstep>
   <time name="diag">   68.96   68.96</time>
   <time name="diis">  134.11  134.11</time>
   <time name="orth">   13.74   13.74</time>
   <time name="total">  259.20  259.21</time>
   <energy>
    <i name="e_fr_energy">   -175.06022828 </i>
    <i name="e_wo_entrp">   -175.02394567 </i>
    <i name="e_0_energy">   -175.05115763 </i>
   </energy>
  </scstep>
  <scstep>
   <time name="diag">   69.72   69.72</time>
   <time name="diis">  152.78  152.79</time>
   <time name="orth">   13.40   13.40</time>
   <time name="total">  278.70  278.71</time>
   <energy>
    <i name="e_fr_energy">   -175.06382865 </i>
    <i name="e_wo_entrp">   -175.02711511 </i>
    <i name="e_0_energy">   -175.05465027 </i>
   </energy>
  </scstep>
  <scstep>
   <time name="diag">   70.15   70.16</time>
   <time name="diis">  121.78  121.78</time>
   <time name="orth">   13.21   13.21</time>
   <time name="total">  246.94  246.95</time>
   <energy>
    <i name="e_fr_energy">   -175.06535827 </i>
    <i name="e_wo_entrp">   -175.03056988 </i>
    <i name="e_0_energy">   -175.05666117 </i>
   </energy>
  </scstep>
  <scstep>
   <time name="diag">   69.86   69.86</time>
   <time name="diis">  132.26  132.26</time>
   <time name="orth">   13.17   13.17</time>
   <time name="total">  257.18  257.19</time>
   <energy>
    <i name="e_fr_energy">   -175.06777044 </i>
    <i name="e_wo_entrp">   -175.03145236 </i>
    <i name="e_0_energy">   -175.05869092 </i>
   </energy>
  </scstep>
  <scstep>
   <time name="diag">   67.71   67.71</time>
   <time name="diis">  128.76  128.76</time>
   <time name="orth">   13.70   13.70</time>
   <time name="total">  252.42  252.43</time>
   <energy>
    <i name="e_fr_energy">   -175.06978719 </i>
    <i name="e_wo_entrp">   -175.03498295 </i>
    <i name="e_0_energy">   -175.06108613 </i>
   </energy>
  </scstep>
  <scstep>
   <time name="diag">   67.23   67.23</time>
   <time name="diis">  119.64  119.64</time>
   <time name="orth">   13.69   13.69</time>
   <time name="total">  244.32  244.33</time>
   <energy>
    <i name="e_fr_energy">   -175.07076928 </i>
    <i name="e_wo_entrp">   -175.03560931 </i>
    <i name="e_0_energy">   -175.06197929 </i>
   </energy>
  </scstep>
  <scstep>
   <time name="diag">   68.92   68.92</time>
   <time name="diis">  116.18  116.18</time>
   <time name="orth">   13.81   13.81</time>
   <time name="total">  243.60  243.60</time>
   <energy>
    <i name="e_fr_energy">   -175.07219147 </i>
    <i name="e_wo_entrp">   -175.03680723 </i>
    <i name="e_0_energy">   -175.06334541 </i>
   </energy>
  </scstep>
  <scstep>
   <time name="diag">   70.84   70.84</time>
   <time name="diis">  114.83  114.84</time>
   <time name="orth">   13.16   13.16</time>
   <time name="total">  242.69  242.70</time>
   <energy>
    <i name="e_fr_energy">   -175.07276914 </i>
    <i name="e_wo_entrp">   -175.03718723 </i>
    <i name="e_0_energy">   -175.06387367 </i>
   </energy>
  </scstep>
  <scstep>
   <time name="diag">   70.52   70.52</time>
   <time name="diis">  118.59  118.59</time>
   <time name="orth">   13.41   13.41</time>
   <time name="total">  245.91  245.92</time>
   <energy>
    <i name="e_fr_energy">   -175.07378369 </i>
    <i name="e_wo_entrp">   -175.03815211 </i>
    <i name="e_0_energy">   -175.06487580 </i>
   </energy>
  </scstep>
  <scstep>
   <time name="diag">   68.44   68.44</time>
   <time name="diis">  116.12  116.12</time>
   <time name="orth">   13.60   13.60</time>
   <time name="total">  241.98  241.98</time>
   <energy>
    <i name="e_fr_energy">   -175.07441340 </i>
    <i name="e_wo_entrp">   -175.03889199 </i>
    <i name="e_0_energy">   -175.06553305 </i>
   </energy>
  </scstep>
  <scstep>
   <time name="diag">   68.33   68.34</time>
   <time name="diis">  110.41  110.42</time>
   <time name="orth">   13.74   13.74</time>
   <time name="total">  237.18  237.19</time>
   <energy>
    <i name="e_fr_energy">   -175.07491245 </i>
    <i name="e_wo_entrp">   -175.03939621 </i>
    <i name="e_0_energy">   -175.06603339 </i>
   </energy>
  </scstep>
  <scstep>
   <time name="diag">   69.62   69.62</time>
   <time name="diis">  105.55  105.56</time>
   <time name="orth">   13.58   13.58</time>
   <time name="total">  232.55  232.56</time>
   <energy>
    <i name="e_fr_energy">   -175.07554601 </i>
    <i name="e_wo_entrp">   -175.04010334 </i>
    <i name="e_0_energy">   -175.06668534 </i>
   </energy>
  </scstep>
  <scstep>
   <time name="diag">   70.06   70.06</time>
   <time name="diis">   92.37   92.37</time>
   <time name="orth">   13.51   13.51</time>
   <time name="total">  219.24  219.25</time>
   <energy>
    <i name="e_fr_energy">   -175.07581718 </i>
    <i name="e_wo_entrp">   -175.04039372 </i>
    <i name="e_0_energy">   -175.06696131 </i>
   </energy>
  </scstep>
  <scstep>
   <time name="diag">   68.50   68.50</time>
   <time name="diis">   95.49   95.49</time>
   <time name="orth">   13.94   13.94</time>
   <time name="total">  221.10  221.11</time>
   <energy>
    <i name="e_fr_energy">   -175.07628800 </i>
    <i name="e_wo_entrp">   -175.04095024 </i>
    <i name="e_0_energy">   -175.06745356 </i>
   </energy>
  </scstep>
  <scstep>
   <time name="diag">   68.38   68.38</time>
   <time name="diis">   86.59   86.59</time>
   <time name="orth">   13.65   13.65</time>
   <time name="total">  211.96  211.97</time>
   <energy>
    <i name="e_fr_energy">   -175.07660936 </i>
    <i name="e_wo_entrp">   -175.04110772 </i>
    <i name="e_0_energy">   -175.06773395 </i>
   </energy>
  </scstep>
  <scstep>
   <time name="diag">   70.01   70.02</time>
   <time name="diis">   96.22   96.22</time>
   <time name="orth">   13.33   13.33</time>
   <time name="total">  222.88  222.89</time>
   <energy>
    <i name="e_fr_energy">   -175.07692217 </i>
    <i name="e_wo_entrp">   -175.04149553 </i>
    <i name="e_0_energy">   -175.06806551 </i>
   </energy>
  </scstep>
  <scstep>
   <time name="diag">   68.12   68.12</time>
   <time name="diis">   83.20   83.20</time>
   <time name="orth">   13.16   13.16</time>
   <time name="total">  207.38  207.39</time>
   <energy>
    <i name="e_fr_energy">   -175.07709328 </i>
    <i name="e_wo_entrp">   -175.04166261 </i>
    <i name="e_0_energy">   -175.06823561 </i>
   </energy>
  </scstep>
  <scstep>
   <time name="diag">   67.13   67.13</time>
   <time name="diis">   91.55   91.56</time>
   <time name="orth">   13.52   13.52</time>
   <time name="total">  215.98  215.98</time>
   <energy>
    <i name="e_fr_energy">   -175.07733594 </i>
    <i name="e_wo_entrp">   -175.04191332 </i>
    <i name="e_0_energy">   -175.06848028 </i>
   </energy>
  </scstep>
  <scstep>
   <time name="diag">   68.75   68.75</time>
   <time name="diis">   84.27   84.27</time>
   <time name="orth">   13.52   13.52</time>
   <time name="total">  210.47  210.49</time>
   <energy>
    <i name="e_fr_energy">   -175.07747492 </i>
    <i name="e_wo_entrp">   -175.04199389 </i>
    <i name="e_0_energy">   -175.06860467 </i>
   </energy>
  </scstep>
  <scstep>
   <time name="diag">   68.05   68.05</time>
   <time name="diis">   87.54   87.54</time>
   <time name="orth">   13.48   13.48</time>
   <time name="total">  212.12  212.12</time>
   <energy>
    <i name="e_fr_energy">   -175.07763348 </i>
    <i name="e_wo_entrp">   -175.04221304 </i>
    <i name="e_0_energy">   -175.06877837 </i>
   </energy>
  </scstep>
  <scstep>
   <time name="diag">   67.98   67.98</time>
   <time name="diis">   81.79   81.79</time>
   <time name="orth">   13.74   13.74</time>
   <time name="total">  177.35  177.35</time>
   <energy>
    <i name="alphaZ">     75.25431677 </i>
    <i name="ewald"> 139149.73714437 </i>
    <i name="hartreedc">-183514.95448637 </i>
    <i name="XCdc">  -1692.13333305 </i>
    <i name="pawpsdc">  46123.45094814 </i>
    <i name="pawaedc"> -42593.38370178 </i>
    <i name="eentropy">     -0.03540942 </i>
    <i name="bandstr">  -2809.51866595 </i>
    <i name="atom">  45086.50549395 </i>
    <i name="e_fr_energy">   -175.07769334 </i>
    <i name="e_wo_entrp">   -175.04228391 </i>
    <i name="e_0_energy">   -175.06884098 </i>
   </energy>
  </scstep>
  <structure>
   <crystal>
    <varray name="basis" >
     <v>      30.00000000       0.00000000       0.00000000 </v>
     <v>       0.00000000      30.00000000       0.00000000 </v>
     <v>       0.00000000       0.00000000      30.00000000 </v>
    </varray>
    <i name="volume">  27000.00000000 </i>
    <varray name="rec_basis" >
     <v>       0.03333333       0.00000000       0.00000000 </v>
     <v>       0.00000000       0.03333333       0.00000000 </v>
     <v>       0.00000000       0.00000000       0.03333333 </v>
    </varray>
   </crystal>
   <varray name="positions" >
    <v>       0.44576020       0.32826710       0.41691983 </v>
    <v>       0.67173288       0.55423978       0.41691983 </v>
    <v>       0.55423980       0.32826710       0.41691983 </v>
    <v>       0.32826712       0.55423978       0.41691983 </v>
    <v>       0.50000000       0.38250690       0.34021317 </v>
    <v>       0.50000000       0.38250690       0.65978680 </v>
    <v>       0.50000000       0.27609440       0.50000000 </v>
    <v>       0.27609443       0.49999998       0.50000000 </v>
    <v>       0.72390557       0.49999998       0.50000000 </v>
    <v>       0.50000000       0.72390555       0.50000000 </v>
    <v>       0.61195280       0.38804720       0.34167483 </v>
    <v>       0.61195280       0.38804720       0.65832513 </v>
    <v>       0.38804722       0.61195278       0.34167483 </v>
    <v>       0.38804722       0.61195278       0.65832513 </v>
    <v>       0.38804720       0.38804720       0.34167483 </v>
    <v>       0.38804720       0.38804720       0.65832513 </v>
    <v>       0.61195278       0.61195278       0.34167483 </v>
    <v>       0.61195278       0.61195278       0.65832513 </v>
    <v>       0.44576020       0.32826710       0.58308023 </v>
    <v>       0.67173288       0.55423978       0.58308023 </v>
    <v>       0.55791699       0.44208301       0.41809300 </v>
    <v>       0.32826705       0.44576024       0.41691983 </v>
    <v>       0.55423973       0.67173293       0.41691983 </v>
    <v>       0.55423980       0.32826710       0.58308023 </v>
    <v>       0.32826712       0.55423978       0.58308023 </v>
    <v>       0.67173295       0.44576024       0.41691983 </v>
    <v>       0.44576027       0.67173293       0.41691983 </v>
    <v>       0.44208301       0.44208301       0.41809300 </v>
    <v>       0.50000000       0.38416601       0.50000000 </v>
    <v>       0.61749315       0.50000005       0.34021317 </v>
    <v>       0.61749315       0.50000005       0.65978680 </v>
    <v>       0.38250685       0.50000005       0.34021317 </v>
    <v>       0.38250685       0.50000005       0.65978680 </v>
    <v>       0.38317830       0.38317830       0.50000000 </v>
    <v>       0.61682172       0.61682172       0.50000000 </v>
    <v>       0.61682170       0.38317830       0.50000000 </v>
    <v>       0.38317828       0.61682172       0.50000000 </v>
    <v>       0.50000000       0.50000000       0.33478917 </v>
    <v>       0.50000000       0.50000000       0.66521087 </v>
    <v>       0.32826705       0.44576024       0.58308023 </v>
    <v>       0.55423973       0.67173293       0.58308023 </v>
    <v>       0.55791699       0.44208301       0.58190703 </v>
    <v>       0.44208298       0.55791702       0.41809300 </v>
    <v>       0.44208301       0.44208301       0.58190703 </v>
    <v>       0.67173295       0.44576024       0.58308023 </v>
    <v>       0.44576027       0.67173293       0.58308023 </v>
    <v>       0.55791702       0.55791702       0.41809300 </v>
    <v>       0.38416599       0.50000002       0.50000000 </v>
    <v>       0.61583401       0.50000002       0.50000000 </v>
    <v>       0.50000000       0.61749319       0.34021317 </v>
    <v>       0.50000000       0.61749319       0.65978680 </v>
    <v>       0.50000000       0.50000000       0.50000000 </v>
    <v>       0.44208298       0.55791702       0.58190703 </v>
    <v>       0.55791702       0.55791702       0.58190703 </v>
    <v>       0.50000000       0.61583404       0.50000000 </v>
    <v>       0.43755060       0.48020700       0.70465797 </v>
    <v>       0.42662350       0.47674370       0.74046807 </v>
   </varray>
  </structure>
  <varray name="forces" >
   <v>       0.69990010       1.11277697       0.29232608 </v>
   <v>      -1.10717377      -0.69765725       0.29127115 </v>
   <v>      -0.69704383       1.11153945       0.28410349 </v>
   <v>       1.11757327      -0.69860051       0.28424863 </v>
   <v>      -0.00204744       0.41051509       1.27855914 </v>
   <v>       0.04609215       0.37897112      -1.30471922 </v>
   <v>      -0.00920328       1.50567999       0.01151424 </v>
   <v>       1.50947872      -0.01347913       0.03526858 </v>
   <v>      -1.51133532      -0.00328573       0.00208983 </v>
   <v>      -0.00810501      -1.50930475       0.00584307 </v>
   <v>      -0.75459819       0.74910657       1.07483908 </v>
   <v>      -0.75432335       0.75085006      -1.07232870 </v>
   <v>       0.75195608      -0.75537668       1.07300040 </v>
   <v>       0.72770389      -0.70993787      -1.06609263 </v>
   <v>       0.75407244       0.75553910       1.07196678 </v>
   <v>       0.72300411       0.70249839      -1.05210479 </v>
   <v>      -0.75263714      -0.74800568       1.07615789 </v>
   <v>      -0.75721711      -0.75437588      -1.07067792 </v>
   <v>       0.70917304       1.09258813      -0.31580124 </v>
   <v>      -1.11536286      -0.69507307      -0.28848144 </v>
   <v>       0.11353704      -0.11449403      -0.15015406 </v>
   <v>       1.11572348       0.69867082       0.29131442 </v>
   <v>      -0.69683584      -1.10975084       0.29078467 </v>
   <v>      -0.70785116       1.11029526      -0.28082123 </v>
   <v>       1.06779490      -0.68880710      -0.32777011 </v>
   <v>      -1.10665244       0.69823665       0.28858831 </v>
   <v>       0.70046529      -1.10966960       0.29032918 </v>
   <v>      -0.11206211      -0.11543915      -0.15544340 </v>
   <v>      -0.00205627      -0.22256146      -0.00237841 </v>
   <v>      -0.40083756      -0.00373293       1.28155393 </v>
   <v>      -0.40846955       0.00887414      -1.29423448 </v>
   <v>       0.41451496      -0.00033865       1.27853390 </v>
   <v>       1.42220132      -0.32397214      -0.74805485 </v>
   <v>       0.83767723       0.83240853       0.00642766 </v>
   <v>      -0.81536530      -0.82203195      -0.01764087 </v>
   <v>      -0.82171335       0.82879158      -0.00731434 </v>
   <v>       0.83594403      -0.82763373       0.00552065 </v>
   <v>      -0.01551672      -0.00438658       1.18293560 </v>
   <v>      -1.28338803      -0.51166211      -0.20324666 </v>
   <v>       1.04138350       0.69291001      -0.37699572 </v>
   <v>      -0.70286081      -1.11222314      -0.28362211 </v>
   <v>       0.15278924      -0.13129161       0.12944216 </v>
   <v>      -0.11086647       0.11444714      -0.15718504 </v>
   <v>      -0.11764197      -0.16511957       0.04498690 </v>
   <v>      -1.10954806       0.69622988      -0.29077954 </v>
   <v>       0.70243175      -1.10423983      -0.29916192 </v>
   <v>       0.11382549       0.11609936      -0.14760041 </v>
   <v>      -0.22565074      -0.00149583       0.00313935 </v>
   <v>       0.21427723       0.00371992       0.00043729 </v>
   <v>      -0.00453474      -0.40746055       1.27981771 </v>
   <v>       0.03155917      -0.36977221      -1.30563569 </v>
   <v>      -0.00415380      -0.00448076      -0.00234314 </v>
   <v>      -0.12905543       0.16881320       0.09704548 </v>
   <v>       0.12280653       0.11074238       0.15607293 </v>
   <v>       0.00571095       0.22302043      -0.00694000 </v>
   <v>       1.43370245       1.64601614      -6.64343177 </v>
   <v>      -1.12119073      -0.78368001       5.46284116 </v>
  </varray>
  <varray name="stress" >
   <v>      -6.93094287      -0.00669441      -0.05641555 </v>
   <v>      -0.00669444      -6.71764793       0.01841910 </v>
   <v>      -0.05641554       0.01841907      -6.46089323 </v>
  </varray>
  <energy>
   <i name="e_fr_energy">   -175.07769334 </i>
   <i name="e_wo_entrp">   -175.06884098 </i>
   <i name="e_0_energy">     -0.03540942 </i>
  </energy>
  <time name="totalsc">18186.8318187.45</time>
  <eigenvalues>
   <array>
    <dimension dim="1">band</dimension>
    <dimension dim="2">kpoint</dimension>
    <dimension dim="3">spin</dimension>
    <field>eigene</field>
    <field>occ</field>
    <set>
     <set comment="spin 1">
      <set comment="kpoint 1">
       <r>  -28.4076    1.0000 </r>
       <r>  -13.1894    1.0000 </r>
       <r>  -11.1009    1.0000 </r>
       <r>  -10.8738    1.0000 </r>
       <r>   -9.9540    1.0000 </r>
       <r>   -6.6389    1.0000 </r>
       <r>   -6.1335    1.0000 </r>
       <r>   -6.1261    1.0000 </r>
       <r>   -6.1180    1.0000 </r>
       <r>   -5.8383    1.0000 </r>
       <r>   -5.8192    1.0000 </r>
       <r>   -5.8139    1.0000 </r>
       <r>   -5.7536    1.0000 </r>
       <r>   -5.7428    1.0000 </r>
       <r>   -5.7082    1.0000 </r>
       <r>   -5.6923    1.0000 </r>
       <r>   -5.6836    1.0000 </r>
       <r>   -5.6805    1.0000 </r>
       <r>   -5.6725    1.0000 </r>
       <r>   -5.6360    1.0000 </r>
       <r>   -5.6224    1.0000 </r>
       <r>   -5.6206    1.0000 </r>
       <r>   -5.6015    1.0000 </r>
       <r>   -5.5947    1.0000 </r>
       <r>   -5.5898    1.0000 </r>
       <r>   -5.5758    1.0000 </r>
       <r>   -5.5646    1.0000 </r>
       <r>   -5.5534    1.0000 </r>
       <r>   -5.5425    1.0000 </r>
       <r>   -5.5281    1.0000 </r>
       <r>   -5.5219    1.0000 </r>
       <r>   -5.5182    1.0000 </r>
       <r>   -5.5156    1.0000 </r>
       <r>   -5.5115    1.0000 </r>
       <r>   -5.5084    1.0000 </r>
       <r>   -5.5044    1.0000 </r>
       <r>   -5.4966    1.0000 </r>
       <r>   -5.4924    1.0000 </r>
       <r>   -5.4792    1.0000 </r>
       <r>   -5.4739    1.0000 </r>
       <r>   -5.4704    1.0000 </r>
       <r>   -5.4680    1.0000 </r>
       <r>   -5.4644    1.0000 </r>
       <r>   -5.4627    1.0000 </r>
       <r>   -5.4608    1.0000 </r>
       <r>   -5.4458    1.0000 </r>
       <r>   -5.4405    1.0000 </r>
       <r>   -5.4291    1.0000 </r>
       <r>   -5.4248    1.0000 </r>
       <r>   -5.4235    1.0000 </r>
       <r>   -5.4203    1.0000 </r>
       <r>   -5.4032    1.0000 </r>
       <r>   -5.3992    1.0000 </r>
       <r>   -5.3949    1.0000 </r>
       <r>   -5.3861    1.0000 </r>
       <r>   -5.3790    1.0000 </r>
       <r>   -5.3591    1.0000 </r>
       <r>   -5.3378    1.0000 </r>
       <r>   -5.3298    1.0000 </r>
       <r>   -5.3260    1.0000 </r>
       <r>   -5.3155    1.0000 </r>
       <r>   -5.3129    1.0000 </r>
       <r>   -5.3094    1.0000 </r>
       <r>   -5.3025    1.0000 </r>
       <r>   -5.2972    1.0000 </r>
       <r>   -5.2923    1.0000 </r>
       <r>   -5.2846    1.0000 </r>
       <r>   -5.2677    1.0000 </r>
       <r>   -5.2393    1.0000 </r>
       <r>   -5.2271    1.0000 </r>
       <r>   -5.2201    1.0000 </r>
       <r>   -5.1965    1.0000 </r>
       <r>   -5.1913    1.0000 </r>
       <r>   -5.1790    1.0000 </r>
       <r>   -5.1754    1.0000 </r>
       <r>   -5.1750    1.0000 </r>
       <r>   -5.1723    1.0000 </r>
       <r>   -5.1631    1.0000 </r>
       <r>   -5.1580    1.0000 </r>
       <r>   -5.1485    1.0000 </r>
       <r>   -5.1457    1.0000 </r>
       <r>   -5.1436    1.0000 </r>
       <r>   -5.1297    1.0000 </r>
       <r>   -5.1195    1.0000 </r>
       <r>   -5.1114    1.0000 </r>
       <r>   -5.1068    1.0000 </r>
       <r>   -5.0988    1.0000 </r>
       <r>   -5.0858    1.0000 </r>
       <r>   -5.0821    1.0000 </r>
       <r>   -5.0667    1.0000 </r>
       <r>   -5.0642    1.0000 </r>
       <r>   -5.0542    1.0000 </r>
       <r>   -5.0508    1.0000 </r>
       <r>   -5.0473    1.0000 </r>
       <r>   -5.0470    1.0000 </r>
       <r>   -5.0427    1.0000 </r>
       <r>   -5.0404    1.0000 </r>
       <r>   -5.0394    1.0000 </r>
       <r>   -5.0234    1.0000 </r>
       <r>   -5.0207    1.0000 </r>
       <r>   -5.0156    1.0000 </r>
       <r>   -5.0116    1.0000 </r>
       <r>   -5.0066    1.0000 </r>
       <r>   -4.9991    1.0000 </r>
       <r>   -4.9979    1.0000 </r>
       <r>   -4.9958    1.0000 </r>
       <r>   -4.9917    1.0000 </r>
       <r>   -4.9860    1.0000 </r>
       <r>   -4.9814    1.0000 </r>
       <r>   -4.9796    1.0000 </r>
       <r>   -4.9771    1.0000 </r>
       <r>   -4.9705    1.0000 </r>
       <r>   -4.9687    1.0000 </r>
       <r>   -4.9625    1.0000 </r>
       <r>   -4.9521    1.0000 </r>
       <r>   -4.9507    1.0000 </r>
       <r>   -4.9451    1.0000 </r>
       <r>   -4.9343    1.0000 </r>
       <r>   -4.9219    1.0000 </r>
       <r>   -4.9206    1.0000 </r>
       <r>   -4.9120    1.0000 </r>
       <r>   -4.9085    1.0000 </r>
       <r>   -4.9066    1.0000 </r>
       <r>   -4.9010    1.0000 </r>
       <r>   -4.8993    1.0000 </r>
       <r>   -4.8920    1.0000 </r>
       <r>   -4.8778    1.0000 </r>
       <r>   -4.8686    1.0000 </r>
       <r>   -4.8566    1.0000 </r>
       <r>   -4.8545    1.0000 </r>
       <r>   -4.8419    1.0000 </r>
       <r>   -4.8384    1.0000 </r>
       <r>   -4.8335    1.0000 </r>
       <r>   -4.8295    1.0000 </r>
       <r>   -4.8278    1.0000 </r>
       <r>   -4.8242    1.0000 </r>
       <r>   -4.8138    1.0000 </r>
       <r>   -4.8034    0.9999 </r>
       <r>   -4.7954    0.9999 </r>
       <r>   -4.7898    0.9999 </r>
       <r>   -4.7806    0.9999 </r>
       <r>   -4.7649    0.9998 </r>
       <r>   -4.7544    0.9998 </r>
       <r>   -4.7387    0.9997 </r>
       <r>   -4.7370    0.9997 </r>
       <r>   -4.7346    0.9997 </r>
       <r>   -4.7305    0.9996 </r>
       <r>   -4.7264    0.9996 </r>
       <r>   -4.7129    0.9994 </r>
       <r>   -4.7025    0.9993 </r>
       <r>   -4.6971    0.9992 </r>
       <r>   -4.6892    0.9991 </r>
       <r>   -4.6869    0.9991 </r>
       <r>   -4.6814    0.9989 </r>
       <r>   -4.6745    0.9988 </r>
       <r>   -4.6701    0.9987 </r>
       <r>   -4.6689    0.9987 </r>
       <r>   -4.6670    0.9986 </r>
       <r>   -4.6662    0.9986 </r>
       <r>   -4.6623    0.9985 </r>
       <r>   -4.6524    0.9983 </r>
       <r>   -4.6485    0.9981 </r>
       <r>   -4.6470    0.9981 </r>
       <r>   -4.6455    0.9981 </r>
       <r>   -4.6428    0.9980 </r>
       <r>   -4.6412    0.9979 </r>
       <r>   -4.6368    0.9978 </r>
       <r>   -4.6328    0.9976 </r>
       <r>   -4.6316    0.9976 </r>
       <r>   -4.6258    0.9974 </r>
       <r>   -4.6161    0.9971 </r>
       <r>   -4.6117    0.9969 </r>
       <r>   -4.6103    0.9968 </r>
       <r>   -4.5953    0.9963 </r>
       <r>   -4.5925    0.9962 </r>
       <r>   -4.5911    0.9961 </r>
       <r>   -4.5890    0.9960 </r>
       <r>   -4.5852    0.9959 </r>
       <r>   -4.5796    0.9957 </r>
       <r>   -4.5729    0.9955 </r>
       <r>   -4.5688    0.9954 </r>
       <r>   -4.5596    0.9952 </r>
       <r>   -4.5583    0.9952 </r>
       <r>   -4.5550    0.9951 </r>
       <r>   -4.5498    0.9951 </r>
       <r>   -4.5474    0.9951 </r>
       <r>   -4.5464    0.9951 </r>
       <r>   -4.5427    0.9951 </r>
       <r>   -4.5408    0.9951 </r>
       <r>   -4.5329    0.9952 </r>
       <r>   -4.5167    0.9959 </r>
       <r>   -4.5126    0.9961 </r>
       <r>   -4.5041    0.9968 </r>
       <r>   -4.5017    0.9971 </r>
       <r>   -4.4967    0.9977 </r>
       <r>   -4.4899    0.9986 </r>
       <r>   -4.4870    0.9991 </r>
       <r>   -4.4841    0.9995 </r>
       <r>   -4.4778    1.0007 </r>
       <r>   -4.4747    1.0013 </r>
       <r>   -4.4678    1.0029 </r>
       <r>   -4.4614    1.0046 </r>
       <r>   -4.4577    1.0056 </r>
       <r>   -4.4552    1.0063 </r>
       <r>   -4.4525    1.0072 </r>
       <r>   -4.4495    1.0081 </r>
       <r>   -4.4440    1.0100 </r>
       <r>   -4.4436    1.0101 </r>
       <r>   -4.4387    1.0119 </r>
       <r>   -4.4330    1.0141 </r>
       <r>   -4.4321    1.0145 </r>
       <r>   -4.4155    1.0216 </r>
       <r>   -4.4106    1.0239 </r>
       <r>   -4.4069    1.0256 </r>
       <r>   -4.4043    1.0268 </r>
       <r>   -4.3997    1.0291 </r>
       <r>   -4.3979    1.0299 </r>
       <r>   -4.3951    1.0312 </r>
       <r>   -4.3937    1.0320 </r>
       <r>   -4.3882    1.0346 </r>
       <r>   -4.3849    1.0361 </r>
       <r>   -4.3711    1.0423 </r>
       <r>   -4.3563    1.0477 </r>
       <r>   -4.3509    1.0492 </r>
       <r>   -4.3465    1.0502 </r>
       <r>   -4.3387    1.0514 </r>
       <r>   -4.3329    1.0516 </r>
       <r>   -4.3322    1.0516 </r>
       <r>   -4.3299    1.0515 </r>
       <r>   -4.3282    1.0514 </r>
       <r>   -4.3269    1.0513 </r>
       <r>   -4.3245    1.0510 </r>
       <r>   -4.3231    1.0507 </r>
       <r>   -4.3181    1.0495 </r>
       <r>   -4.3173    1.0493 </r>
       <r>   -4.3144    1.0483 </r>
       <r>   -4.3139    1.0481 </r>
       <r>   -4.3107    1.0467 </r>
       <r>   -4.3092    1.0460 </r>
       <r>   -4.3036    1.0427 </r>
       <r>   -4.2981    1.0388 </r>
       <r>   -4.2955    1.0366 </r>
       <r>   -4.2913    1.0326 </r>
       <r>   -4.2867    1.0276 </r>
       <r>   -4.2861    1.0269 </r>
       <r>   -4.2850    1.0256 </r>
       <r>   -4.2778    1.0160 </r>
       <r>   -4.2767    1.0143 </r>
       <r>   -4.2759    1.0132 </r>
       <r>   -4.2735    1.0094 </r>
       <r>   -4.2606    0.9857 </r>
       <r>   -4.2579    0.9800 </r>
       <r>   -4.2558    0.9753 </r>
       <r>   -4.2497    0.9610 </r>
       <r>   -4.2486    0.9582 </r>
       <r>   -4.2451    0.9490 </r>
       <r>   -4.2432    0.9439 </r>
       <r>   -4.2414    0.9390 </r>
       <r>   -4.2374    0.9273 </r>
       <r>   -4.2369    0.9258 </r>
       <r>   -4.2344    0.9181 </r>
       <r>   -4.2314    0.9088 </r>
       <r>   -4.2283    0.8986 </r>
       <r>   -4.2277    0.8968 </r>
       <r>   -4.2264    0.8922 </r>
       <r>   -4.2161    0.8556 </r>
       <r>   -4.2154    0.8528 </r>
       <r>   -4.2125    0.8418 </r>
       <r>   -4.2110    0.8359 </r>
       <r>   -4.2093    0.8290 </r>
       <r>   -4.2069    0.8193 </r>
       <r>   -4.1976    0.7801 </r>
       <r>   -4.1923    0.7561 </r>
       <r>   -4.1856    0.7254 </r>
       <r>   -4.1804    0.7006 </r>
       <r>   -4.1770    0.6840 </r>
       <r>   -4.1712    0.6552 </r>
       <r>   -4.1641    0.6191 </r>
       <r>   -4.1635    0.6158 </r>
       <r>   -4.1608    0.6019 </r>
       <r>   -4.1598    0.5970 </r>
       <r>   -4.1485    0.5379 </r>
       <r>   -4.1399    0.4921 </r>
       <r>   -4.1232    0.4047 </r>
       <r>   -4.1212    0.3944 </r>
       <r>   -4.1193    0.3842 </r>
       <r>   -4.1118    0.3460 </r>
       <r>   -4.1015    0.2956 </r>
       <r>   -4.0074   -0.0123 </r>
       <r>   -3.9641   -0.0497 </r>
       <r>   -3.9009   -0.0376 </r>
       <r>   -3.8198   -0.0042 </r>
       <r>   -3.8131   -0.0025 </r>
       <r>   -3.7625    0.0043 </r>
       <r>   -3.4940    0.0001 </r>
       <r>   -3.4848    0.0001 </r>
       <r>   -3.3315    0.0000 </r>
       <r>   -3.0594    0.0000 </r>
       <r>   -3.0527    0.0000 </r>
       <r>   -3.0342    0.0000 </r>
       <r>   -3.0249    0.0000 </r>
       <r>   -3.0123    0.0000 </r>
       <r>   -3.0009    0.0000 </r>
       <r>   -2.9310    0.0000 </r>
       <r>   -2.8323    0.0000 </r>
       <r>   -2.5639    0.0000 </r>
       <r>   -2.5146    0.0000 </r>
       <r>   -2.4923    0.0000 </r>
       <r>   -2.2118    0.0000 </r>
       <r>   -2.1204    0.0000 </r>
       <r>   -2.1134    0.0000 </r>
       <r>   -2.1026    0.0000 </r>
       <r>   -2.0397    0.0000 </r>
       <r>   -1.9603    0.0000 </r>
       <r>   -1.9416    0.0000 </r>
       <r>   -1.8490    0.0000 </r>
       <r>   -1.8403    0.0000 </r>
       <r>   -1.7465    0.0000 </r>
       <r>   -1.6911    0.0000 </r>
       <r>   -1.6386    0.0000 </r>
       <r>   -1.6134    0.0000 </r>
       <r>   -1.5562    0.0000 </r>
       <r>   -1.5205    0.0000 </r>
       <r>   -1.4217    0.0000 </r>
       <r>   -1.3164    0.0000 </r>
       <r>   -1.1092    0.0000 </r>
       <r>   -1.0487    0.0000 </r>
       <r>   -0.9960    0.0000 </r>
       <r>   -0.9816    0.0000 </r>
       <r>   -0.9542    0.0000 </r>
       <r>   -0.9368    0.0000 </r>
       <r>   -0.9283    0.0000 </r>
       <r>   -0.9160    0.0000 </r>
       <r>   -0.8934    0.0000 </r>
       <r>   -0.8109    0.0000 </r>
       <r>   -0.6978    0.0000 </r>
      </set>
     </set>
    </set>
   </array>
  </eigenvalues>
  <separator name="orbital magnetization" >
   <v name="MAGDIPOLOUT">      0.00000000      0.00000000      0.00000000</v>
  </separator>
  <dos>
   <i name="efermi">     -4.14136452 </i>
   <total>
    <array>
     <dimension dim="1">gridpoints</dimension>
     <dimension dim="2">spin</dimension>
     <field>energy</field>
     <field>total</field>
     <field>integrated</field>
     <set>
      <set comment="spin 1">
       <r>   -30.4076     0.0000     0.0000 </r>
       <r>   -30.3019     0.0000     0.0000 </r>
       <r>   -30.1962     0.0000     0.0000 </r>
       <r>   -30.0905     0.0000     0.0000 </r>
       <r>   -29.9848     0.0000     0.0000 </r>
       <r>   -29.8791     0.0000     0.0000 </r>
       <r>   -29.7734     0.0000     0.0000 </r>
       <r>   -29.6677     0.0000     0.0000 </r>
       <r>   -29.5620     0.0000     0.0000 </r>
       <r>   -29.4563     0.0000     0.0000 </r>
       <r>   -29.3506     0.0000     0.0000 </r>
       <r>   -29.2449     0.0000     0.0000 </r>
       <r>   -29.1392     0.0001     0.0000 </r>
       <r>   -29.0335     0.0029     0.0003 </r>
       <r>   -28.9278     0.0253     0.0030 </r>
       <r>   -28.8221     0.0636     0.0097 </r>
       <r>   -28.7164    -0.2415    -0.0158 </r>
       <r>   -28.6107    -0.8079    -0.1012 </r>
       <r>   -28.5050     2.2568     0.1373 </r>
       <r>   -28.3993     8.9900     1.0876 </r>
       <r>   -28.2936     8.1467     1.9487 </r>
       <r>   -28.1879     1.3589     2.0923 </r>
       <r>   -28.0822    -0.8134     2.0063 </r>
       <r>   -27.9765    -0.1451     1.9910 </r>
       <r>   -27.8708     0.0639     1.9978 </r>
       <r>   -27.7651     0.0191     1.9998 </r>
       <r>   -27.6594     0.0019     2.0000 </r>
       <r>   -27.5537     0.0001     2.0000 </r>
       <r>   -27.4480     0.0000     2.0000 </r>
       <r>   -27.3423     0.0000     2.0000 </r>
       <r>   -27.2366     0.0000     2.0000 </r>
       <r>   -27.1309     0.0000     2.0000 </r>
       <r>   -27.0252     0.0000     2.0000 </r>
       <r>   -26.9195     0.0000     2.0000 </r>
       <r>   -26.8138     0.0000     2.0000 </r>
       <r>   -26.7081     0.0000     2.0000 </r>
       <r>   -26.6024     0.0000     2.0000 </r>
       <r>   -26.4967     0.0000     2.0000 </r>
       <r>   -26.3910     0.0000     2.0000 </r>
       <r>   -26.2853     0.0000     2.0000 </r>
       <r>   -26.1796     0.0000     2.0000 </r>
       <r>   -26.0739     0.0000     2.0000 </r>
       <r>   -25.9682     0.0000     2.0000 </r>
       <r>   -25.8625     0.0000     2.0000 </r>
       <r>   -25.7568     0.0000     2.0000 </r>
       <r>   -25.6511     0.0000     2.0000 </r>
       <r>   -25.5454     0.0000     2.0000 </r>
       <r>   -25.4397     0.0000     2.0000 </r>
       <r>   -25.3340     0.0000     2.0000 </r>
       <r>   -25.2283     0.0000     2.0000 </r>
       <r>   -25.1226     0.0000     2.0000 </r>
       <r>   -25.0169     0.0000     2.0000 </r>
       <r>   -24.9112     0.0000     2.0000 </r>
       <r>   -24.8055     0.0000     2.0000 </r>
       <r>   -24.6998     0.0000     2.0000 </r>
       <r>   -24.5941     0.0000     2.0000 </r>
       <r>   -24.4884     0.0000     2.0000 </r>
       <r>   -24.3827     0.0000     2.0000 </r>
       <r>   -24.2770     0.0000     2.0000 </r>
       <r>   -24.1713     0.0000     2.0000 </r>
       <r>   -24.0656     0.0000     2.0000 </r>
       <r>   -23.9599     0.0000     2.0000 </r>
       <r>   -23.8542     0.0000     2.0000 </r>
       <r>   -23.7485     0.0000     2.0000 </r>
       <r>   -23.6428     0.0000     2.0000 </r>
       <r>   -23.5371     0.0000     2.0000 </r>
       <r>   -23.4314     0.0000     2.0000 </r>
       <r>   -23.3257     0.0000     2.0000 </r>
       <r>   -23.2200     0.0000     2.0000 </r>
       <r>   -23.1143     0.0000     2.0000 </r>
       <r>   -23.0086     0.0000     2.0000 </r>
       <r>   -22.9029     0.0000     2.0000 </r>
       <r>   -22.7972     0.0000     2.0000 </r>
       <r>   -22.6915     0.0000     2.0000 </r>
       <r>   -22.5858     0.0000     2.0000 </r>
       <r>   -22.4801     0.0000     2.0000 </r>
       <r>   -22.3744     0.0000     2.0000 </r>
       <r>   -22.2687     0.0000     2.0000 </r>
       <r>   -22.1630     0.0000     2.0000 </r>
       <r>   -22.0573     0.0000     2.0000 </r>
       <r>   -21.9516     0.0000     2.0000 </r>
       <r>   -21.8459     0.0000     2.0000 </r>
       <r>   -21.7402     0.0000     2.0000 </r>
       <r>   -21.6345     0.0000     2.0000 </r>
       <r>   -21.5288     0.0000     2.0000 </r>
       <r>   -21.4231     0.0000     2.0000 </r>
       <r>   -21.3174     0.0000     2.0000 </r>
       <r>   -21.2118     0.0000     2.0000 </r>
       <r>   -21.1061     0.0000     2.0000 </r>
       <r>   -21.0004     0.0000     2.0000 </r>
       <r>   -20.8947     0.0000     2.0000 </r>
       <r>   -20.7890     0.0000     2.0000 </r>
       <r>   -20.6833     0.0000     2.0000 </r>
       <r>   -20.5776     0.0000     2.0000 </r>
       <r>   -20.4719     0.0000     2.0000 </r>
       <r>   -20.3662     0.0000     2.0000 </r>
       <r>   -20.2605     0.0000     2.0000 </r>
       <r>   -20.1548     0.0000     2.0000 </r>
       <r>   -20.0491     0.0000     2.0000 </r>
       <r>   -19.9434     0.0000     2.0000 </r>
       <r>   -19.8377     0.0000     2.0000 </r>
       <r>   -19.7320     0.0000     2.0000 </r>
       <r>   -19.6263     0.0000     2.0000 </r>
       <r>   -19.5206     0.0000     2.0000 </r>
       <r>   -19.4149     0.0000     2.0000 </r>
       <r>   -19.3092     0.0000     2.0000 </r>
       <r>   -19.2035     0.0000     2.0000 </r>
       <r>   -19.0978     0.0000     2.0000 </r>
       <r>   -18.9921     0.0000     2.0000 </r>
       <r>   -18.8864     0.0000     2.0000 </r>
       <r>   -18.7807     0.0000     2.0000 </r>
       <r>   -18.6750     0.0000     2.0000 </r>
       <r>   -18.5693     0.0000     2.0000 </r>
       <r>   -18.4636     0.0000     2.0000 </r>
       <r>   -18.3579     0.0000     2.0000 </r>
       <r>   -18.2522     0.0000     2.0000 </r>
       <r>   -18.1465     0.0000     2.0000 </r>
       <r>   -18.0408     0.0000     2.0000 </r>
       <r>   -17.9351     0.0000     2.0000 </r>
       <r>   -17.8294     0.0000     2.0000 </r>
       <r>   -17.7237     0.0000     2.0000 </r>
       <r>   -17.6180     0.0000     2.0000 </r>
       <r>   -17.5123     0.0000     2.0000 </r>
       <r>   -17.4066     0.0000     2.0000 </r>
       <r>   -17.3009     0.0000     2.0000 </r>
       <r>   -17.1952     0.0000     2.0000 </r>
       <r>   -17.0895     0.0000     2.0000 </r>
       <r>   -16.9838     0.0000     2.0000 </r>
       <r>   -16.8781     0.0000     2.0000 </r>
       <r>   -16.7724     0.0000     2.0000 </r>
       <r>   -16.6667     0.0000     2.0000 </r>
       <r>   -16.5610     0.0000     2.0000 </r>
       <r>   -16.4553     0.0000     2.0000 </r>
       <r>   -16.3496     0.0000     2.0000 </r>
       <r>   -16.2439     0.0000     2.0000 </r>
       <r>   -16.1382     0.0000     2.0000 </r>
       <r>   -16.0325     0.0000     2.0000 </r>
       <r>   -15.9268     0.0000     2.0000 </r>
       <r>   -15.8211     0.0000     2.0000 </r>
       <r>   -15.7154     0.0000     2.0000 </r>
       <r>   -15.6097     0.0000     2.0000 </r>
       <r>   -15.5040     0.0000     2.0000 </r>
       <r>   -15.3983     0.0000     2.0000 </r>
       <r>   -15.2926     0.0000     2.0000 </r>
       <r>   -15.1869     0.0000     2.0000 </r>
       <r>   -15.0812     0.0000     2.0000 </r>
       <r>   -14.9755     0.0000     2.0000 </r>
       <r>   -14.8698     0.0000     2.0000 </r>
       <r>   -14.7641     0.0000     2.0000 </r>
       <r>   -14.6584     0.0000     2.0000 </r>
       <r>   -14.5527     0.0000     2.0000 </r>
       <r>   -14.4470     0.0000     2.0000 </r>
       <r>   -14.3413     0.0000     2.0000 </r>
       <r>   -14.2356     0.0000     2.0000 </r>
       <r>   -14.1299     0.0000     2.0000 </r>
       <r>   -14.0242     0.0000     2.0000 </r>
       <r>   -13.9185     0.0002     2.0000 </r>
       <r>   -13.8128     0.0031     2.0003 </r>
       <r>   -13.7071     0.0264     2.0031 </r>
       <r>   -13.6014     0.0629     2.0098 </r>
       <r>   -13.4957    -0.2581     1.9825 </r>
       <r>   -13.3900    -0.7994     1.8980 </r>
       <r>   -13.2843     2.4080     2.1525 </r>
       <r>   -13.1786     9.1013     3.1145 </r>
       <r>   -13.0729     7.9996     3.9601 </r>
       <r>   -12.9672     1.2337     4.0905 </r>
       <r>   -12.8615    -0.8077     4.0051 </r>
       <r>   -12.7558    -0.1319     3.9912 </r>
       <r>   -12.6501     0.0635     3.9979 </r>
       <r>   -12.5444     0.0183     3.9998 </r>
       <r>   -12.4387     0.0018     4.0000 </r>
       <r>   -12.3330     0.0001     4.0000 </r>
       <r>   -12.2273     0.0000     4.0000 </r>
       <r>   -12.1216     0.0000     4.0000 </r>
       <r>   -12.0159     0.0000     4.0000 </r>
       <r>   -11.9102     0.0000     4.0000 </r>
       <r>   -11.8045     0.0003     4.0000 </r>
       <r>   -11.6988     0.0056     4.0006 </r>
       <r>   -11.5931     0.0384     4.0047 </r>
       <r>   -11.4874     0.0481     4.0098 </r>
       <r>   -11.3817    -0.4101     3.9664 </r>
       <r>   -11.2760    -0.5163     3.9118 </r>
       <r>   -11.1703     3.7278     4.3059 </r>
       <r>   -11.0646     9.1313     5.2711 </r>
       <r>   -10.9589     9.3735     6.2618 </r>
       <r>   -10.8532     9.6715     7.2841 </r>
       <r>   -10.7475     6.7226     7.9947 </r>
       <r>   -10.6418     0.7665     8.0757 </r>
       <r>   -10.5361    -0.7110     8.0005 </r>
       <r>   -10.4304    -0.0290     7.9975 </r>
       <r>   -10.3247     0.0798     8.0059 </r>
       <r>   -10.2190    -0.5467     7.9481 </r>
       <r>   -10.1133    -0.2790     7.9186 </r>
       <r>   -10.0076     5.1570     8.4637 </r>
       <r>    -9.9019    10.0249     9.5233 </r>
       <r>    -9.7962     5.2589    10.0792 </r>
       <r>    -9.6905    -0.2468    10.0531 </r>
       <r>    -9.5848    -0.5730     9.9926 </r>
       <r>    -9.4791     0.0148     9.9941 </r>
       <r>    -9.3734     0.0469     9.9991 </r>
       <r>    -9.2677     0.0081     9.9999 </r>
       <r>    -9.1620     0.0006    10.0000 </r>
       <r>    -9.0563     0.0000    10.0000 </r>
       <r>    -8.9506     0.0000    10.0000 </r>
       <r>    -8.8449     0.0000    10.0000 </r>
       <r>    -8.7392     0.0000    10.0000 </r>
       <r>    -8.6335     0.0000    10.0000 </r>
       <r>    -8.5278     0.0000    10.0000 </r>
       <r>    -8.4221     0.0000    10.0000 </r>
       <r>    -8.3164     0.0000    10.0000 </r>
       <r>    -8.2107     0.0000    10.0000 </r>
       <r>    -8.1050     0.0000    10.0000 </r>
       <r>    -7.9993     0.0000    10.0000 </r>
       <r>    -7.8936     0.0000    10.0000 </r>
       <r>    -7.7879     0.0000    10.0000 </r>
       <r>    -7.6822     0.0000    10.0000 </r>
       <r>    -7.5765     0.0000    10.0000 </r>
       <r>    -7.4708     0.0000    10.0000 </r>
       <r>    -7.3651     0.0002    10.0000 </r>
       <r>    -7.2594     0.0033    10.0004 </r>
       <r>    -7.1537     0.0276    10.0033 </r>
       <r>    -7.0480     0.0620    10.0098 </r>
       <r>    -6.9423    -0.2770     9.9806 </r>
       <r>    -6.8366    -0.7864     9.8974 </r>
       <r>    -6.7309     2.5950    10.1717 </r>
       <r>    -6.6252     9.3232    11.1572 </r>
       <r>    -6.5195     7.9855    12.0012 </r>
       <r>    -6.4138    -0.0408    11.9969 </r>
       <r>    -6.3081    -2.5995    11.7222 </r>
       <r>    -6.2024    11.0014    12.8850 </r>
       <r>    -6.0967    28.2973    15.8760 </r>
       <r>    -5.9910    17.5741    17.7336 </r>
       <r>    -5.8853     9.9458    18.7849 </r>
       <r>    -5.7796    42.6456    23.2925 </r>
       <r>    -5.6739   100.3489    33.8993 </r>
       <r>    -5.5682   189.9908    53.9812 </r>
       <r>    -5.4625   281.9493    83.7831 </r>
       <r>    -5.3568   277.5473   113.1197 </r>
       <r>    -5.2511   213.9059   135.7295 </r>
       <r>    -5.1454   227.4005   159.7656 </r>
       <r>    -5.0397   322.6244   193.8668 </r>
       <r>    -4.9340   368.9466   232.8643 </r>
       <r>    -4.8283   314.0704   266.0613 </r>
       <r>    -4.7226   300.4308   297.8167 </r>
       <r>    -4.6169   383.1902   338.3197 </r>
       <r>    -4.5112   423.2018   383.0519 </r>
       <r>    -4.4055   430.6677   428.5733 </r>
       <r>    -4.2998   516.7814   483.1968 </r>
       <r>    -4.1941   533.0761   539.5427 </r>
       <r>    -4.0884   313.7510   572.7060 </r>
       <r>    -3.9827    75.0916   580.6431 </r>
       <r>    -3.8770    15.5652   582.2883 </r>
       <r>    -3.7713    31.5508   585.6232 </r>
       <r>    -3.6656    20.3876   587.7782 </r>
       <r>    -3.5599     9.3084   588.7621 </r>
       <r>    -3.4542    19.1613   590.7874 </r>
       <r>    -3.3485    19.2542   592.8226 </r>
       <r>    -3.2428     5.3019   593.3830 </r>
       <r>    -3.1371    11.5630   594.6052 </r>
       <r>    -3.0314    50.9704   599.9927 </r>
       <r>    -2.9257    62.1084   606.5576 </r>
       <r>    -2.8200    28.1794   609.5361 </r>
       <r>    -2.7143     3.3065   609.8856 </r>
       <r>    -2.6086     8.7503   610.8105 </r>
       <r>    -2.5029    26.3916   613.6001 </r>
       <r>    -2.3972    19.9697   615.7109 </r>
       <r>    -2.2915     4.0814   616.1423 </r>
       <r>    -2.1858    17.3868   617.9801 </r>
       <r>    -2.0801    42.0529   622.4250 </r>
       <r>    -1.9744    45.1796   627.2005 </r>
       <r>    -1.8687    36.8977   631.1006 </r>
       <r>    -1.7630    33.7032   634.6630 </r>
       <r>    -1.6573    38.6545   638.7487 </r>
       <r>    -1.5516    42.3410   643.2242 </r>
       <r>    -1.4459    32.6368   646.6738 </r>
       <r>    -1.3402    19.1178   648.6946 </r>
       <r>    -1.2345     8.1979   649.5611 </r>
       <r>    -1.1289     9.6581   650.5820 </r>
       <r>    -1.0232    41.9957   655.0209 </r>
       <r>    -0.9175    74.4938   662.8948 </r>
       <r>    -0.8118    57.7678   669.0009 </r>
       <r>    -0.7061    21.9406   671.3200 </r>
       <r>    -0.6004     6.1626   671.9714 </r>
       <r>    -0.4947     0.8182   672.0579 </r>
       <r>    -0.3890    -0.6114   671.9932 </r>
       <r>    -0.2833    -0.0648   671.9864 </r>
       <r>    -0.1776     0.0974   671.9967 </r>
       <r>    -0.0719     0.0283   671.9997 </r>
       <r>     0.0338     0.0030   672.0000 </r>
       <r>     0.1395     0.0002   672.0000 </r>
       <r>     0.2452     0.0000   672.0000 </r>
       <r>     0.3509     0.0000   672.0000 </r>
       <r>     0.4566     0.0000   672.0000 </r>
       <r>     0.5623     0.0000   672.0000 </r>
       <r>     0.6680     0.0000   672.0000 </r>
       <r>     0.7737     0.0000   672.0000 </r>
       <r>     0.8794     0.0000   672.0000 </r>
       <r>     0.9851     0.0000   672.0000 </r>
       <r>     1.0908     0.0000   672.0000 </r>
       <r>     1.1965     0.0000   672.0000 </r>
       <r>     1.3022     0.0000   672.0000 </r>
      </set>
     </set>
    </array>
   </total>
  </dos>
 </calculation>
 <structure name="finalpos" >
  <crystal>
   <varray name="basis" >
    <v>      30.00000000       0.00000000       0.00000000 </v>
    <v>       0.00000000      30.00000000       0.00000000 </v>
    <v>       0.00000000       0.00000000      30.00000000 </v>
   </varray>
   <i name="volume">  27000.00000000 </i>
   <varray name="rec_basis" >
    <v>       0.03333333       0.00000000       0.00000000 </v>
    <v>       0.00000000       0.03333333       0.00000000 </v>
    <v>       0.00000000       0.00000000       0.03333333 </v>
   </varray>
  </crystal>
  <varray name="positions" >
   <v>       0.44576020       0.32826710       0.41691983 </v>
   <v>       0.67173288       0.55423978       0.41691983 </v>
   <v>       0.55423980       0.32826710       0.41691983 </v>
   <v>       0.32826712       0.55423978       0.41691983 </v>
   <v>       0.50000000       0.38250690       0.34021317 </v>
   <v>       0.50000000       0.38250690       0.65978680 </v>
   <v>       0.50000000       0.27609440       0.50000000 </v>
   <v>       0.27609443       0.49999998       0.50000000 </v>
   <v>       0.72390557       0.49999998       0.50000000 </v>
   <v>       0.50000000       0.72390555       0.50000000 </v>
   <v>       0.61195280       0.38804720       0.34167483 </v>
   <v>       0.61195280       0.38804720       0.65832513 </v>
   <v>       0.38804722       0.61195278       0.34167483 </v>
   <v>       0.38804722       0.61195278       0.65832513 </v>
   <v>       0.38804720       0.38804720       0.34167483 </v>
   <v>       0.38804720       0.38804720       0.65832513 </v>
   <v>       0.61195278       0.61195278       0.34167483 </v>
   <v>       0.61195278       0.61195278       0.65832513 </v>
   <v>       0.44576020       0.32826710       0.58308023 </v>
   <v>       0.67173288       0.55423978       0.58308023 </v>
   <v>       0.55791699       0.44208301       0.41809300 </v>
   <v>       0.32826705       0.44576024       0.41691983 </v>
   <v>       0.55423973       0.67173293       0.41691983 </v>
   <v>       0.55423980       0.32826710       0.58308023 </v>
   <v>       0.32826712       0.55423978       0.58308023 </v>
   <v>       0.67173295       0.44576024       0.41691983 </v>
   <v>       0.44576027       0.67173293       0.41691983 </v>
   <v>       0.44208301       0.44208301       0.41809300 </v>
   <v>       0.50000000       0.38416601       0.50000000 </v>
   <v>       0.61749315       0.50000005       0.34021317 </v>
   <v>       0.61749315       0.50000005       0.65978680 </v>
   <v>       0.38250685       0.50000005       0.34021317 </v>
   <v>       0.38250685       0.50000005       0.65978680 </v>
   <v>       0.38317830       0.38317830       0.50000000 </v>
   <v>       0.61682172       0.61682172       0.50000000 </v>
   <v>       0.61682170       0.38317830       0.50000000 </v>
   <v>       0.38317828       0.61682172       0.50000000 </v>
   <v>       0.50000000       0.50000000       0.33478917 </v>
   <v>       0.50000000       0.50000000       0.66521087 </v>
   <v>       0.32826705       0.44576024       0.58308023 </v>
   <v>       0.55423973       0.67173293       0.58308023 </v>
   <v>       0.55791699       0.44208301       0.58190703 </v>
   <v>       0.44208298       0.55791702       0.41809300 </v>
   <v>       0.44208301       0.44208301       0.58190703 </v>
   <v>       0.67173295       0.44576024       0.58308023 </v>
   <v>       0.44576027       0.67173293       0.58308023 </v>
   <v>       0.55791702       0.55791702       0.41809300 </v>
   <v>       0.38416599       0.50000002       0.50000000 </v>
   <v>       0.61583401       0.50000002       0.50000000 </v>
   <v>       0.50000000       0.61749319       0.34021317 </v>
   <v>       0.50000000       0.61749319       0.65978680 </v>
   <v>       0.50000000       0.50000000       0.50000000 </v>
   <v>       0.44208298       0.55791702       0.58190703 </v>
   <v>       0.55791702       0.55791702       0.58190703 </v>
   <v>       0.50000000       0.61583404       0.50000000 </v>
   <v>       0.43755060       0.48020700       0.70465797 </v>
   <v>       0.42662350       0.47674370       0.74046807 </v>
  </varray>
  <varray name="selective"  type="logical" >
   <v type="logical" >  F  F  F </v>
   <v type="logical" >  F  F  F </v>
   <v type="logical" >  F  F  F </v>
   <v type="logical" >  F  F  F </v>
   <v type="logical" >  F  F  F </v>
   <v type="logical" >  F  F  F </v>
   <v type="logical" >  F  F  F </v>
   <v type="logical" >  F  F  F </v>
   <v type="logical" >  F  F  F </v>
   <v type="logical" >  F  F  F </v>
   <v type="logical" >  F  F  F </v>
   <v type="logical" >  F  F  F </v>
   <v type="logical" >  F  F  F </v>
   <v type="logical" >  F  F  F </v>
   <v type="logical" >  F  F  F </v>
   <v type="logical" >  F  F  F </v>
   <v type="logical" >  F  F  F </v>
   <v type="logical" >  F  F  F </v>
   <v type="logical" >  F  F  F </v>
   <v type="logical" >  F  F  F </v>
   <v type="logical" >  F  F  F </v>
   <v type="logical" >  F  F  F </v>
   <v type="logical" >  F  F  F </v>
   <v type="logical" >  F  F  F </v>
   <v type="logical" >  F  F  F </v>
   <v type="logical" >  F  F  F </v>
   <v type="logical" >  F  F  F </v>
   <v type="logical" >  F  F  F </v>
   <v type="logical" >  F  F  F </v>
   <v type="logical" >  F  F  F </v>
   <v type="logical" >  F  F  F </v>
   <v type="logical" >  F  F  F </v>
   <v type="logical" >  F  F  F </v>
   <v type="logical" >  F  F  F </v>
   <v type="logical" >  F  F  F </v>
   <v type="logical" >  F  F  F </v>
   <v type="logical" >  F  F  F </v>
   <v type="logical" >  F  F  F </v>
   <v type="logical" >  F  F  F </v>
   <v type="logical" >  F  F  F </v>
   <v type="logical" >  F  F  F </v>
   <v type="logical" >  F  F  F </v>
   <v type="logical" >  F  F  F </v>
   <v type="logical" >  F  F  F </v>
   <v type="logical" >  F  F  F </v>
   <v type="logical" >  F  F  F </v>
   <v type="logical" >  F  F  F </v>
   <v type="logical" >  F  F  F </v>
   <v type="logical" >  F  F  F </v>
   <v type="logical" >  F  F  F </v>
   <v type="logical" >  F  F  F </v>
   <v type="logical" >  F  F  F </v>
   <v type="logical" >  F  F  F </v>
   <v type="logical" >  F  F  F </v>
   <v type="logical" >  F  F  F </v>
   <v type="logical" >  F  F  F </v>
   <v type="logical" >  F  F  F </v>
  </varray>
  <nose>
   <v>      -3.00000000       0.00000000       0.00010000       0.00010000 </v>
  </nose>
 </structure>
</modeling>
