   57   57    1    1
  0.4736842E+03  0.3000000E-08  0.3000000E-08  0.3000000E-08  0.5000000E-15
  1.000000000000000E-004
  CAR 
 6_Pd100_top_free_z(O)                   
    560      1    336
 
  0.0000000E+00  0.0000000E+00  0.0000000E+00  0.1000000E+01
    1      -29.090712   1.000000
    2      -13.637774   1.000000
    3      -11.403427   1.000000
    4      -11.400441   1.000000
    5       -9.650678   1.000000
    6       -6.625805   1.000000
    7       -6.109819   1.000000
    8       -6.109062   1.000000
    9       -6.101292   1.000000
   10       -5.796215   1.000000
   11       -5.795713   1.000000
   12       -5.792509   1.000000
   13       -5.725901   1.000000
   14       -5.674099   1.000000
   15       -5.665484   1.000000
   16       -5.665418   1.000000
   17       -5.665114   1.000000
   18       -5.608294   1.000000
   19       -5.602790   1.000000
   20       -5.587950   1.000000
   21       -5.578350   1.000000
   22       -5.577710   1.000000
   23       -5.575952   1.000000
   24       -5.545839   1.000000
   25       -5.538272   1.000000
   26       -5.534945   1.000000
   27       -5.530004   1.000000
   28       -5.506461   1.000000
   29       -5.502724   1.000000
   30       -5.502591   1.000000
   31       -5.497998   1.000000
   32       -5.496204   1.000000
   33       -5.495696   1.000000
   34       -5.495171   1.000000
   35       -5.492236   1.000000
   36       -5.460968   1.000000
   37       -5.458343   1.000000
   38       -5.457162   1.000000
   39       -5.454625   1.000000
   40       -5.450044   1.000000
   41       -5.447681   1.000000
   42       -5.447380   1.000000
   43       -5.447142   1.000000
   44       -5.425186   1.000000
   45       -5.422905   1.000000
   46       -5.410621   1.000000
   47       -5.409269   1.000000
   48       -5.408579   1.000000
   49       -5.407814   1.000000
   50       -5.407065   1.000000
   51       -5.404667   1.000000
   52       -5.391338   1.000000
   53       -5.386858   1.000000
   54       -5.386723   1.000000
   55       -5.373001   1.000000
   56       -5.316787   1.000000
   57       -5.314948   1.000000
   58       -5.312718   1.000000
   59       -5.309170   1.000000
   60       -5.296635   1.000000
   61       -5.296163   1.000000
   62       -5.295984   1.000000
   63       -5.285889   1.000000
   64       -5.284927   1.000000
   65       -5.282209   1.000000
   66       -5.276122   1.000000
   67       -5.270617   1.000000
   68       -5.209098   1.000000
   69       -5.204292   1.000000
   70       -5.194606   1.000000
   71       -5.191400   1.000000
   72       -5.160913   1.000000
   73       -5.160460   1.000000
   74       -5.159059   1.000000
   75       -5.157839   1.000000
   76       -5.155305   1.000000
   77       -5.148705   1.000000
   78       -5.145310   1.000000
   79       -5.144147   1.000000
   80       -5.127329   1.000000
   81       -5.114529   1.000000
   82       -5.104520   1.000000
   83       -5.103664   1.000000
   84       -5.099884   1.000000
   85       -5.086463   1.000000
   86       -5.085514   1.000000
   87       -5.082312   1.000000
   88       -5.055902   1.000000
   89       -5.049985   1.000000
   90       -5.040429   1.000000
   91       -5.038344   1.000000
   92       -5.036299   1.000000
   93       -5.035947   1.000000
   94       -5.030083   1.000000
   95       -5.027973   1.000000
   96       -5.027837   1.000000
   97       -5.027702   1.000000
   98       -5.007108   1.000000
   99       -4.998286   1.000000
  100       -4.998068   1.000000
  101       -4.989104   1.000000
  102       -4.985285   1.000000
  103       -4.985037   1.000000
  104       -4.980898   1.000000
  105       -4.979235   1.000000
  106       -4.970384   1.000000
  107       -4.963532   1.000000
  108       -4.960673   1.000000
  109       -4.959490   1.000000
  110       -4.959397   1.000000
  111       -4.956407   1.000000
  112       -4.948005   1.000000
  113       -4.946979   1.000000
  114       -4.937925   0.999999
  115       -4.933498   0.999999
  116       -4.933081   0.999999
  117       -4.924635   0.999999
  118       -4.905784   0.999998
  119       -4.897286   0.999998
  120       -4.897072   0.999998
  121       -4.896551   0.999998
  122       -4.895851   0.999998
  123       -4.889599   0.999997
  124       -4.887007   0.999997
  125       -4.881577   0.999996
  126       -4.881268   0.999996
  127       -4.843779   0.999987
  128       -4.839796   0.999986
  129       -4.832059   0.999982
  130       -4.827346   0.999979
  131       -4.822809   0.999976
  132       -4.820396   0.999974
  133       -4.811357   0.999967
  134       -4.811162   0.999966
  135       -4.809821   0.999965
  136       -4.799705   0.999953
  137       -4.784080   0.999928
  138       -4.774990   0.999909
  139       -4.771740   0.999901
  140       -4.768559   0.999892
  141       -4.758121   0.999859
  142       -4.740151   0.999780
  143       -4.720953   0.999655
  144       -4.717091   0.999624
  145       -4.717032   0.999624
  146       -4.716072   0.999615
  147       -4.711349   0.999573
  148       -4.695347   0.999397
  149       -4.690167   0.999329
  150       -4.684908   0.999254
  151       -4.674946   0.999092
  152       -4.662360   0.998849
  153       -4.661969   0.998841
  154       -4.656309   0.998716
  155       -4.655805   0.998704
  156       -4.653178   0.998643
  157       -4.652062   0.998616
  158       -4.651965   0.998614
  159       -4.645985   0.998464
  160       -4.636710   0.998210
  161       -4.630949   0.998040
  162       -4.629913   0.998008
  163       -4.629681   0.998001
  164       -4.628620   0.997968
  165       -4.624813   0.997848
  166       -4.624650   0.997842
  167       -4.623085   0.997792
  168       -4.618860   0.997652
  169       -4.609225   0.997317
  170       -4.607582   0.997258
  171       -4.600626   0.997003
  172       -4.592717   0.996707
  173       -4.586837   0.996486
  174       -4.576710   0.996111
  175       -4.576522   0.996104
  176       -4.572790   0.995971
  177       -4.572238   0.995952
  178       -4.566246   0.995748
  179       -4.565378   0.995720
  180       -4.565087   0.995711
  181       -4.552702   0.995355
  182       -4.538052   0.995098
  183       -4.532766   0.995067
  184       -4.531954   0.995065
  185       -4.531229   0.995065
  186       -4.530512   0.995065
  187       -4.530368   0.995066
  188       -4.530186   0.995066
  189       -4.528186   0.995072
  190       -4.527468   0.995076
  191       -4.490648   0.996781
  192       -4.486806   0.997176
  193       -4.485847   0.997283
  194       -4.483624   0.997542
  195       -4.482588   0.997668
  196       -4.470269   0.999484
  197       -4.460715   1.001312
  198       -4.460058   1.001453
  199       -4.456041   1.002350
  200       -4.448141   1.004327
  201       -4.447014   1.004632
  202       -4.440863   1.006398
  203       -4.436701   1.007692
  204       -4.435886   1.007955
  205       -4.429121   1.010249
  206       -4.427541   1.010813
  207       -4.426994   1.011012
  208       -4.426110   1.011334
  209       -4.425456   1.011576
  210       -4.418562   1.014225
  211       -4.407612   1.018809
  212       -4.392532   1.025712
  213       -4.388443   1.027660
  214       -4.387698   1.028018
  215       -4.386712   1.028491
  216       -4.381897   1.030808
  217       -4.380374   1.031541
  218       -4.379523   1.031951
  219       -4.377978   1.032693
  220       -4.360475   1.040793
  221       -4.357283   1.042155
  222       -4.343820   1.047201
  223       -4.328337   1.050919
  224       -4.324532   1.051368
  225       -4.320293   1.051609
  226       -4.317817   1.051614
  227       -4.316504   1.051573
  228       -4.315678   1.051532
  229       -4.315424   1.051517
  230       -4.312116   1.051209
  231       -4.308334   1.050597
  232       -4.307731   1.050472
  233       -4.303545   1.049394
  234       -4.302147   1.048947
  235       -4.300669   1.048427
  236       -4.300346   1.048306
  237       -4.299945   1.048153
  238       -4.298091   1.047396
  239       -4.295614   1.046254
  240       -4.295462   1.046180
  241       -4.283895   1.038681
  242       -4.278963   1.034337
  243       -4.272598   1.027633
  244       -4.271646   1.026520
  245       -4.265441   1.018533
  246       -4.263023   1.015069
  247       -4.262348   1.014066
  248       -4.261739   1.013147
  249       -4.257217   1.005919
  250       -4.257077   1.005683
  251       -4.242459   0.977136
  252       -4.235479   0.960657
  253       -4.235149   0.959833
  254       -4.234743   0.958810
  255       -4.228358   0.941909
  256       -4.228046   0.941043
  257       -4.227915   0.940679
  258       -4.224970   0.932299
  259       -4.222055   0.923672
  260       -4.221989   0.923475
  261       -4.216348   0.905839
  262       -4.215145   0.901921
  263       -4.214928   0.901210
  264       -4.214506   0.899819
  265       -4.211838   0.890868
  266       -4.199831   0.847327
  267       -4.198175   0.840915
  268       -4.196982   0.836233
  269       -4.196410   0.833975
  270       -4.193503   0.822314
  271       -4.192580   0.818551
  272       -4.187775   0.798516
  273       -4.171986   0.727761
  274       -4.170494   0.720723
  275       -4.168411   0.710805
  276       -4.161180   0.675620
  277       -4.160509   0.672301
  278       -4.155225   0.645854
  279       -4.147723   0.607524
  280       -4.147035   0.603968
  281       -4.146667   0.602067
  282       -4.133027   0.530656
  283       -4.110260   0.410750
  284       -4.108320   0.400684
  285       -4.107642   0.397172
  286       -4.103558   0.376156
  287       -4.093802   0.326986
  288       -4.088774   0.302340
  289       -4.060912   0.177522
  290       -3.947615  -0.050274
  291       -3.878228  -0.033532
  292       -3.799280  -0.002553
  293       -3.798743  -0.002427
  294       -3.794366  -0.001446
  295       -3.472397   0.000076
  296       -3.471562   0.000074
  297       -3.403301   0.000010
  298       -3.037395   0.000000
  299       -3.036065   0.000000
  300       -3.000954   0.000000
  301       -2.995006   0.000000
  302       -2.992267   0.000000
  303       -2.991379   0.000000
  304       -2.909984   0.000000
  305       -2.844743   0.000000
  306       -2.548504   0.000000
  307       -2.534849   0.000000
  308       -2.498067   0.000000
  309       -2.251415   0.000000
  310       -2.106638   0.000000
  311       -2.102503   0.000000
  312       -2.097289   0.000000
  313       -1.943717   0.000000
  314       -1.930486   0.000000
  315       -1.882090   0.000000
  316       -1.859792   0.000000
  317       -1.828637   0.000000
  318       -1.757381   0.000000
  319       -1.745521   0.000000
  320       -1.695966   0.000000
  321       -1.622840   0.000000
  322       -1.532086   0.000000
  323       -1.505821   0.000000
  324       -1.469384   0.000000
  325       -1.443539   0.000000
  326       -1.132799   0.000000
  327       -1.120695   0.000000
  328       -1.026665   0.000000
  329       -0.966902   0.000000
  330       -0.965266   0.000000
  331       -0.932914   0.000000
  332       -0.921224   0.000000
  333       -0.910717   0.000000
  334       -0.871388   0.000000
  335       -0.802025   0.000000
  336       -0.685980   0.000000
