 vasp.5.4.4.18Apr17-6-g9f103f2a35 (build Sep 03 2018 23:53:05) complex          
  
 executed on             LinuxIFC date 2021.11.30  21:49:09
 running on    1 total cores
 distrk:  each k-point on    1 cores,    1 groups
 distr:  one band on NCORES_PER_BAND=   1 cores,    1 groups


--------------------------------------------------------------------------------------------------------


 INCAR:
 POTCAR:    PAW_PBE Pd 04Jan2005                  
 POTCAR:    PAW_PBE C 08Apr2002                   
 POTCAR:    PAW_PBE O 08Apr2002                   
 POTCAR:    PAW_PBE Pd 04Jan2005                  
   VRHFIN =Pd : s1 d9                                                           
   LEXCH  = PE                                                                  
   EATOM  =   809.7530 eV,   59.5152 Ry                                         
                                                                                
   TITEL  = PAW_PBE Pd 04Jan2005                                                
   LULTRA =        F    use ultrasoft PP ?                                      
   IUNSCR =        1    unscreen: 0-lin 1-nonlin 2-no                           
   RPACOR =    2.000    partial core radius                                     
   POMASS =  106.420; ZVAL   =   10.000    mass and valenz                      
   RCORE  =    2.600    outmost cutoff radius                                   
   RWIGS  =    2.710; RWIGS  =    1.434    wigner-seitz radius (au A)           
   ENMAX  =  250.925; ENMIN  =  188.194 eV                                      
   ICORE  =        3    local potential                                         
   LCOR   =        T    correct aug charges                                     
   LPAW   =        T    paw PP                                                  
   EAUG   =  416.230                                                            
   DEXC   =    0.000                                                            
   RMAX   =    2.653    core radius for proj-oper                               
   RAUG   =    1.300    factor for augmentation sphere                          
   RDEP   =    2.734    radius for radial grids                                 
   RDEPT  =    2.103    core radius for aug-charge                              
                                                                                
   Atomic configuration                                                         
   12 entries                                                                   
     n  l   j            E        occ.                                          
     1  0  0.50    -24164.6631   2.0000                                         
     2  0  0.50     -3530.9218   2.0000                                         
     2  1  1.50     -3165.6822   6.0000                                         
     3  0  0.50      -639.4577   2.0000                                         
     3  1  1.50      -519.4532   6.0000                                         
     3  2  2.50      -328.9757  10.0000                                         
     4  0  0.50       -88.7014   2.0000                                         
     4  1  1.50       -54.4540   6.0000                                         
     4  2  2.50        -6.6878   9.0000                                         
     5  0  0.50        -4.3543   1.0000                                         
     5  1  0.50        -1.3606   0.0000                                         
     4  3  2.50        -1.3606   0.0000                                         
   Description                                                                  
     l       E           TYP  RCUT    TYP  RCUT                                 
     2     -6.6878251     23  2.400                                             
     2     -8.0484077     23  2.400                                             
     0     -4.3542939     23  2.400                                             
     0      4.3406793     23  2.400                                             
     1     -4.0817478     23  2.600                                             
     1     15.8380318     23  2.600                                             
     3     -4.0817478     23  2.400                                             
  local pseudopotential read in
  partial core-charges read in
  partial kinetic energy density read in
  atomic valenz-charges read in
  non local Contribution for L=           2  read in
    real space projection operators read in
  non local Contribution for L=           2  read in
    real space projection operators read in
  non local Contribution for L=           0  read in
    real space projection operators read in
  non local Contribution for L=           0  read in
    real space projection operators read in
  non local Contribution for L=           1  read in
    real space projection operators read in
  non local Contribution for L=           1  read in
    real space projection operators read in
    PAW grid and wavefunctions read in
 
   number of l-projection  operators is LMAX  =           6
   number of lm-projection operators is LMMAX =          18
 
 POTCAR:    PAW_PBE C 08Apr2002                   
   VRHFIN =C: s2p2                                                              
   LEXCH  = PE                                                                  
   EATOM  =   147.1560 eV,   10.8157 Ry                                         
                                                                                
   TITEL  = PAW_PBE C 08Apr2002                                                 
   LULTRA =        F    use ultrasoft PP ?                                      
   IUNSCR =        1    unscreen: 0-lin 1-nonlin 2-no                           
   RPACOR =    1.200    partial core radius                                     
   POMASS =   12.011; ZVAL   =    4.000    mass and valenz                      
   RCORE  =    1.500    outmost cutoff radius                                   
   RWIGS  =    1.630; RWIGS  =    0.863    wigner-seitz radius (au A)           
   ENMAX  =  400.000; ENMIN  =  300.000 eV                                      
   ICORE  =        2    local potential                                         
   LCOR   =        T    correct aug charges                                     
   LPAW   =        T    paw PP                                                  
   EAUG   =  644.873                                                            
   DEXC   =    0.000                                                            
   RMAX   =    1.529    core radius for proj-oper                               
   RAUG   =    1.300    factor for augmentation sphere                          
   RDEP   =    1.501    radius for radial grids                                 
   RDEPT  =    1.300    core radius for aug-charge                              
                                                                                
   Atomic configuration                                                         
    4 entries                                                                   
     n  l   j            E        occ.                                          
     1  0  0.50      -273.3789   2.0000                                         
     2  0  0.50       -13.7508   2.0000                                         
     2  1  0.50        -5.2854   2.0000                                         
     3  2  1.50        -5.4423   0.0000                                         
   Description                                                                  
     l       E           TYP  RCUT    TYP  RCUT                                 
     0    -13.7508458     23  1.200                                             
     0     -8.2022199     23  1.200                                             
     1     -5.2854383     23  1.500                                             
     1     34.0145650     23  1.500                                             
     2     -5.4423304      7  1.500                                             
  local pseudopotential read in
  partial core-charges read in
  partial kinetic energy density read in
  atomic valenz-charges read in
  non local Contribution for L=           0  read in
    real space projection operators read in
  non local Contribution for L=           0  read in
    real space projection operators read in
  non local Contribution for L=           1  read in
    real space projection operators read in
  non local Contribution for L=           1  read in
    real space projection operators read in
    PAW grid and wavefunctions read in
 
   number of l-projection  operators is LMAX  =           4
   number of lm-projection operators is LMMAX =           8
 
 POTCAR:    PAW_PBE O 08Apr2002                   
   VRHFIN =O: s2p4                                                              
   LEXCH  = PE                                                                  
   EATOM  =   432.3788 eV,   31.7789 Ry                                         
                                                                                
   TITEL  = PAW_PBE O 08Apr2002                                                 
   LULTRA =        F    use ultrasoft PP ?                                      
   IUNSCR =        1    unscreen: 0-lin 1-nonlin 2-no                           
   RPACOR =    1.200    partial core radius                                     
   POMASS =   16.000; ZVAL   =    6.000    mass and valenz                      
   RCORE  =    1.520    outmost cutoff radius                                   
   RWIGS  =    1.550; RWIGS  =    0.820    wigner-seitz radius (au A)           
   ENMAX  =  400.000; ENMIN  =  300.000 eV                                      
   ICORE  =        2    local potential                                         
   LCOR   =        T    correct aug charges                                     
   LPAW   =        T    paw PP                                                  
   EAUG   =  605.392                                                            
   DEXC   =    0.000                                                            
   RMAX   =    1.553    core radius for proj-oper                               
   RAUG   =    1.300    factor for augmentation sphere                          
   RDEP   =    1.550    radius for radial grids                                 
   RDEPT  =    1.329    core radius for aug-charge                              
                                                                                
   Atomic configuration                                                         
    4 entries                                                                   
     n  l   j            E        occ.                                          
     1  0  0.50      -514.6923   2.0000                                         
     2  0  0.50       -23.9615   2.0000                                         
     2  1  0.50        -9.0305   4.0000                                         
     3  2  1.50        -9.5241   0.0000                                         
   Description                                                                  
     l       E           TYP  RCUT    TYP  RCUT                                 
     0    -23.9615318     23  1.200                                             
     0     -9.5240782     23  1.200                                             
     1     -9.0304911     23  1.520                                             
     1      8.1634956     23  1.520                                             
     2     -9.5240782      7  1.500                                             
  local pseudopotential read in
  partial core-charges read in
  partial kinetic energy density read in
  kinetic energy density of atom read in
  atomic valenz-charges read in
  non local Contribution for L=           0  read in
    real space projection operators read in
  non local Contribution for L=           0  read in
    real space projection operators read in
  non local Contribution for L=           1  read in
    real space projection operators read in
  non local Contribution for L=           1  read in
    real space projection operators read in
    PAW grid and wavefunctions read in
 
   number of l-projection  operators is LMAX  =           4
   number of lm-projection operators is LMMAX =           8
 
 Optimization of the real space projectors (new method)

 maximal supplied QI-value         = 14.36
 optimisation between [QCUT,QGAM] = [ 10.20, 20.39] = [ 29.12,116.47] Ry 
 Optimized for a Real-space Cutoff    1.51 Angstroem

   l    n(q)    QCUT    max X(q) W(low)/X(q) W(high)/X(q)  e(spline) 
   2      8    10.197    59.108    0.26E-03    0.14E-03    0.96E-07
   2      8    10.197    58.101    0.27E-03    0.14E-03    0.98E-07
   0      9    10.197   102.235    0.54E-04    0.60E-05    0.72E-07
   0      9    10.197    58.388    0.52E-04    0.60E-05    0.68E-07
   1      9    10.197    22.191    0.18E-03    0.25E-03    0.79E-07
   1      9    10.197    15.590    0.15E-03    0.21E-03    0.69E-07
 Optimization of the real space projectors (new method)

 maximal supplied QI-value         = 25.13
 optimisation between [QCUT,QGAM] = [ 10.05, 20.36] = [ 28.30,116.06] Ry 
 Optimized for a Real-space Cutoff    1.30 Angstroem

   l    n(q)    QCUT    max X(q) W(low)/X(q) W(high)/X(q)  e(spline) 
   0      8    10.053   115.676    0.49E-03    0.72E-03    0.18E-06
   0      8    10.053    87.132    0.49E-03    0.71E-03    0.18E-06
   1      7    10.053     4.429    0.32E-03    0.31E-03    0.18E-06
   1      7    10.053     2.733    0.23E-03    0.19E-03    0.20E-06
 Optimization of the real space projectors (new method)

 maximal supplied QI-value         = 24.76
 optimisation between [QCUT,QGAM] = [ 10.15, 20.30] = [ 28.85,115.39] Ry 
 Optimized for a Real-space Cutoff    1.38 Angstroem

   l    n(q)    QCUT    max X(q) W(low)/X(q) W(high)/X(q)  e(spline) 
   0      8    10.150    20.381    0.22E-03    0.32E-03    0.29E-06
   0      8    10.150    15.268    0.23E-03    0.35E-03    0.30E-06
   1      8    10.150     5.964    0.46E-03    0.53E-03    0.21E-06
   1      8    10.150     5.382    0.38E-03    0.45E-03    0.19E-06

 ----------------------------------------------------------------------------- 
|                                                                             |
|  ADVICE TO THIS USER RUNNING 'VASP/VAMP'   (HEAR YOUR MASTER'S VOICE ...):  |
|                                                                             |
|      You enforced a specific xc-type in the INCAR file,                     |
|      a different type was found on the POTCAR file                          |
|          I HOPE YOU KNOW, WHAT YOU ARE  DOING                               |
|                                                                             |
 ----------------------------------------------------------------------------- 

  PAW_PBE Pd 04Jan2005                  :
 energy of atom  1       EATOM= -809.7530
 kinetic energy error for atom=    0.0091 (will be added to EATOM!!)
  PAW_PBE C 08Apr2002                   :
 energy of atom  2       EATOM= -147.1560
 kinetic energy error for atom=    0.0288 (will be added to EATOM!!)
  PAW_PBE O 08Apr2002                   :
 energy of atom  3       EATOM= -432.3788
 kinetic energy error for atom=    0.1156 (will be added to EATOM!!)
 
 
 POSCAR: Pd55PES                                 
  positions in cartesian coordinates
  No initial velocities read in
 exchange correlation table for  LEXCH =        9
   RHO(1)=    0.500       N(1)  =     2000
   RHO(2)=  100.500       N(2)  =     4000
 


--------------------------------------------------------------------------------------------------------


 ion  position               nearest neighbor table
   1  0.446  0.328  0.417-   3 3.25   5 3.25   7 3.36  15 3.36  29 3.42  28 3.42
   2  0.672  0.554  0.417-  26 3.25  30 3.25  17 3.36   9 3.36  47 3.42  49 3.42
   3  0.554  0.328  0.417-   1 3.25   5 3.25   7 3.36  11 3.36  29 3.42  21 3.42
   4  0.328  0.554  0.417-  32 3.25  22 3.25  13 3.36   8 3.36  43 3.42  48 3.42
   5  0.500  0.383  0.340-   1 3.25   3 3.25  11 3.36  15 3.36  21 3.42  28 3.42
   6  0.500  0.383  0.660-  24 3.25  19 3.25  16 3.36  12 3.36  42 3.42  44 3.42
   7  0.500  0.276  0.500-  29 3.24   3 3.36   1 3.36  19 3.36  24 3.36
   8  0.276  0.500  0.500-  48 3.24  22 3.36  40 3.36   4 3.36  25 3.36
   9  0.724  0.500  0.500-  49 3.24  26 3.36  45 3.36   2 3.36  20 3.36
  10  0.500  0.724  0.500-  55 3.24  27 3.36  23 3.36  46 3.36  41 3.36
  11  0.612  0.388  0.342-  21 3.24   5 3.36   3 3.36  30 3.36  26 3.36
  12  0.612  0.388  0.658-  42 3.24  24 3.36  45 3.36   6 3.36  31 3.36
  13  0.388  0.612  0.342-  43 3.24  32 3.36  50 3.36   4 3.36  27 3.36
  14  0.388  0.612  0.658-  53 3.24  25 3.36  33 3.36  51 3.36  46 3.36
  15  0.388  0.388  0.342-  28 3.24   5 3.36   1 3.36  32 3.36  22 3.36
  16  0.388  0.388  0.658-  44 3.24  19 3.36  40 3.36   6 3.36  33 3.36
  17  0.612  0.612  0.342-  47 3.24  30 3.36  50 3.36   2 3.36  23 3.36
  18  0.612  0.612  0.658-  54 3.24  31 3.36  20 3.36  51 3.36  41 3.36
  19  0.446  0.328  0.583-   6 3.25  24 3.25  16 3.36   7 3.36  44 3.42  29 3.42
  20  0.672  0.554  0.583-  31 3.25  45 3.25  18 3.36   9 3.36  54 3.42  49 3.42
  21  0.558  0.442  0.418-  11 3.24   5 3.42   3 3.42  30 3.42  26 3.42
  22  0.328  0.446  0.417-   4 3.25  32 3.25   8 3.36  15 3.36  48 3.42  28 3.42
  23  0.554  0.672  0.417-  27 3.25  50 3.25  10 3.36  17 3.36  55 3.42  47 3.42
  24  0.554  0.328  0.583-   6 3.25  19 3.25  12 3.36   7 3.36  42 3.42  29 3.42
  25  0.328  0.554  0.583-  33 3.25  40 3.25  14 3.36   8 3.36  53 3.42  48 3.42
  26  0.672  0.446  0.417-   2 3.25  30 3.25   9 3.36  11 3.36  49 3.42  21 3.42
  27  0.446  0.672  0.417-  23 3.25  50 3.25  10 3.36  13 3.36  55 3.42  43 3.42
  28  0.442  0.442  0.418-  15 3.24   5 3.42   1 3.42  32 3.42  22 3.42
  29  0.500  0.384  0.500-   7 3.24   3 3.42   1 3.42  24 3.42  19 3.42
  30  0.617  0.500  0.340-   2 3.25  26 3.25  17 3.36  11 3.36  47 3.42  21 3.42
  31  0.617  0.500  0.660-  20 3.25  45 3.25  18 3.36  12 3.36  54 3.42  42 3.42
  32  0.383  0.500  0.340-   4 3.25  22 3.25  13 3.36  15 3.36  43 3.42  28 3.42
  33  0.383  0.500  0.660-  25 3.25  40 3.25  14 3.36  16 3.36  53 3.42  44 3.42
  34  0.383  0.383  0.500-
  35  0.617  0.617  0.500-
  36  0.617  0.383  0.500-
  37  0.383  0.617  0.500-
  38  0.500  0.500  0.335-
  39  0.500  0.500  0.665-
  40  0.328  0.446  0.583-  33 3.25  25 3.25  16 3.36   8 3.36  44 3.42  48 3.42
  41  0.554  0.672  0.583-  46 3.25  51 3.25  10 3.36  18 3.36  54 3.42  55 3.42
  42  0.558  0.442  0.582-  12 3.24   6 3.42  24 3.42  31 3.42  45 3.42
  43  0.442  0.558  0.418-  13 3.24   4 3.42  32 3.42  27 3.42  50 3.42
  44  0.442  0.442  0.582-  16 3.24   6 3.42  19 3.42  33 3.42  40 3.42
  45  0.672  0.446  0.583-  20 3.25  31 3.25   9 3.36  12 3.36  49 3.42  42 3.42
  46  0.446  0.672  0.583-  56 1.94  41 3.25  51 3.25  10 3.36  14 3.36  53 3.42  55 3.42
  47  0.558  0.558  0.418-  17 3.24   2 3.42  30 3.42  23 3.42  50 3.42
  48  0.384  0.500  0.500-   8 3.24   4 3.42  22 3.42  25 3.42  40 3.42
  49  0.616  0.500  0.500-   9 3.24   2 3.42  26 3.42  20 3.42  45 3.42
  50  0.500  0.617  0.340-  27 3.25  23 3.25  13 3.36  17 3.36  43 3.42  47 3.42
  51  0.500  0.617  0.660-  41 3.25  46 3.25  14 3.36  18 3.36  53 3.42  54 3.42
  52  0.500  0.500  0.500-
  53  0.442  0.558  0.582-  14 3.24  25 3.42  33 3.42  51 3.42  46 3.42
  54  0.558  0.558  0.582-  18 3.24  31 3.42  20 3.42  51 3.42  41 3.42
  55  0.500  0.616  0.500-  10 3.24  23 3.42  27 3.42  41 3.42  46 3.42
  56  0.480  0.711  0.621-  57 1.13  46 1.94
  57  0.477  0.744  0.640-  56 1.13
 
  LATTYP: Found a simple cubic cell.
 ALAT       =    30.0000000000
  
  Lattice vectors:
  
 A1 = (  30.0000000000,   0.0000000000,   0.0000000000)
 A2 = (   0.0000000000,  30.0000000000,   0.0000000000)
 A3 = (   0.0000000000,   0.0000000000,  30.0000000000)


Analysis of symmetry for initial positions (statically):
=====================================================================
 Subroutine PRICEL returns:
 Original cell was already a primitive cell.
 

 Routine SETGRP: Setting up the symmetry group for a 
 simple cubic supercell.


 Subroutine GETGRP returns: Found  1 space group operations
 (whereof  1 operations were pure point group operations)
 out of a pool of 48 trial point group operations.


The static configuration has the point symmetry C_1 .


Analysis of symmetry for dynamics (positions and initial velocities):
=====================================================================
 Subroutine PRICEL returns:
 Original cell was already a primitive cell.
 

 Routine SETGRP: Setting up the symmetry group for a 
 simple cubic supercell.


 Subroutine GETGRP returns: Found  1 space group operations
 (whereof  1 operations were pure point group operations)
 out of a pool of 48 trial point group operations.


The dynamic configuration has the point symmetry C_1 .


Analysis of constrained symmetry for selective dynamics:
=====================================================================
 Subroutine PRICEL returns:
 Original cell was already a primitive cell.
 

 Routine SETGRP: Setting up the symmetry group for a 
 simple cubic supercell.


 Subroutine GETGRP returns: Found  1 space group operations
 (whereof  1 operations were pure point group operations)
 out of a pool of 48 trial point group operations.


The constrained configuration has the point symmetry C_1 .


 Subroutine INISYM returns: Found  1 space group operations
 (whereof  1 operations are pure point group operations),
 and found     1 'primitive' translations

 
 
 KPOINTS: K-points                                

Automatic generation of k-mesh.
Space group operators:
 irot       det(A)        alpha          n_x          n_y          n_z        tau_x        tau_y        tau_z
    1     1.000000     0.000000     1.000000     0.000000     0.000000     0.000000     0.000000     0.000000
 
 Subroutine IBZKPT returns following result:
 ===========================================
 
 Found      1 irreducible k-points:
 
 Following reciprocal coordinates:
            Coordinates               Weight
  0.000000  0.000000  0.000000      1.000000
 
 Following cartesian coordinates:
            Coordinates               Weight
  0.000000  0.000000  0.000000      1.000000
 


--------------------------------------------------------------------------------------------------------




 Dimension of arrays:
   k-points           NKPTS =      1   k-points in BZ     NKDIM =      1   number of bands    NBANDS=    336
   number of dos      NEDOS =    301   number of ions     NIONS =     57
   non local maximal  LDIM  =      6   non local SUM 2l+1 LMDIM =     18
   total plane-waves  NPLWV = ******
   max r-space proj   IRMAX =   1847   max aug-charges    IRDMAX=   6262
   dimension x,y,z NGX =   150 NGY =  150 NGZ =  150
   dimension x,y,z NGXF=   300 NGYF=  300 NGZF=  300
   support grid    NGXF=   300 NGYF=  300 NGZF=  300
   ions per type =              55   1   1
   NGX,Y,Z   is equivalent  to a cutoff of   8.31,  8.31,  8.31 a.u.
   NGXF,Y,Z  is equivalent  to a cutoff of  16.62, 16.62, 16.62 a.u.

 SYSTEM =  6_Pd100_top_free_z(O)                   
 POSCAR =  Pd55PES                                 

 Startparameter for this run:
   NWRITE =      2    write-flag & timer
   PREC   = normal    normal or accurate (medium, high low for compatibility)
   ISTART =      0    job   : 0-new  1-cont  2-samecut
   ICHARG =      2    charge: 1-file 2-atom 10-const
   ISPIN  =      1    spin polarized calculation?
   LNONCOLLINEAR =      F non collinear calculations
   LSORBIT =      F    spin-orbit coupling
   INIWAV =      1    electr: 0-lowe 1-rand  2-diag
   LASPH  =      F    aspherical Exc in radial PAW
   METAGGA=      F    non-selfconsistent MetaGGA calc.

 Electronic Relaxation 1
   ENCUT  =  400.0 eV  29.40 Ry    5.42 a.u.  48.92 48.92 48.92*2*pi/ulx,y,z
   ENINI  =  400.0     initial cutoff
   ENAUG  =  644.9 eV  augmentation charge cutoff
   NELM   =    100;   NELMIN=  6; NELMDL= -5     # of ELM steps 
   EDIFF  = 0.1E-03   stopping-criterion for ELM
   LREAL  =      T    real-space projection
   NLSPLINE    = F    spline interpolate recip. space projectors
   LCOMPAT=      F    compatible to vasp.4.4
   GGA_COMPAT  = T    GGA compatible to vasp.4.4-vasp.4.6
   LMAXPAW     = -100 max onsite density
   LMAXMIX     =    2 max onsite mixed and CHGCAR
   VOSKOWN=      0    Vosko Wilk Nusair interpolation
   ROPT   =   -0.00050  -0.00050  -0.00050
 Ionic relaxation
   EDIFFG = -.5E-01   stopping-criterion for IOM
   NSW    =      0    number of steps for IOM
   NBLOCK =      1;   KBLOCK =      1    inner block; outer block 
   IBRION =     -1    ionic relax: 0-MD 1-quasi-New 2-CG
   NFREE  =      1    steps in history (QN), initial steepest desc. (CG)
   ISIF   =      2    stress and relaxation
   IWAVPR =     10    prediction:  0-non 1-charg 2-wave 3-comb
   ISYM   =      2    0-nonsym 1-usesym 2-fastsym
   LCORR  =      T    Harris-Foulkes like correction to forces

   POTIM  = 0.5000    time-step for ionic-motion
   TEIN   =    0.0    initial temperature
   TEBEG  =    0.0;   TEEND  =   0.0 temperature during run
   SMASS  =  -3.00    Nose mass-parameter (am)
   estimated Nose-frequenzy (Omega)   =  0.10E-29 period in steps =****** mass=  -0.206E-25a.u.
   SCALEE = 1.0000    scale energy and forces
   NPACO  =    256;   APACO  = 16.0  distance and # of slots for P.C.
   PSTRESS=    0.0 pullay stress

  Mass of Ions in am
   POMASS = 106.42 12.01 16.00
  Ionic Valenz
   ZVAL   =  10.00  4.00  6.00
  Atomic Wigner-Seitz radii
   RWIGS  =  -1.00 -1.00 -1.00
  virtual crystal weights 
   VCA    =   1.00  1.00  1.00
   NELECT =     560.0000    total number of electrons
   NUPDOWN=      -1.0000    fix difference up-down

 DOS related values:
   EMIN   =  10.00;   EMAX   =-10.00  energy-range for DOS
   EFERMI =   0.00
   ISMEAR =     2;   SIGMA  =   0.20  broadening in eV -4-tet -1-fermi 0-gaus

 Electronic relaxation 2 (details)
   IALGO  =     68    algorithm
   LDIAG  =      T    sub-space diagonalisation (order eigenvalues)
   LSUBROT=      F    optimize rotation matrix (better conditioning)
   TURBO    =      0    0=normal 1=particle mesh
   IRESTART =      0    0=no restart 2=restart with 2 vectors
   NREBOOT  =      0    no. of reboots
   NMIN     =      0    reboot dimension
   EREF     =   0.00    reference energy to select bands
   IMIX   =      4    mixing-type and parameters
     AMIX     =   0.40;   BMIX     =  1.00
     AMIX_MAG =   1.60;   BMIX_MAG =  1.00
     AMIN     =   0.10
     WC   =   100.;   INIMIX=   1;  MIXPRE=   1;  MAXMIX= -45

 Intra band minimization:
   WEIMIN = 0.0000     energy-eigenvalue tresh-hold
   EBREAK =  0.74E-07  absolut break condition
   DEPER  =   0.30     relativ break condition  

   TIME   =   0.40     timestep for ELM

  volume/ion in A,a.u.               =     473.68      3196.58
  Fermi-wavevector in a.u.,A,eV,Ry     =   0.449797  0.849992  2.752691  0.202317
  Thomas-Fermi vector in A             =   1.430086
 
 Write flags
   LWAVE        =      F    write WAVECAR
   LDOWNSAMPLE  =      F    k-point downsampling of WAVECAR
   LCHARG       =      F    write CHGCAR
   LVTOT        =      F    write LOCPOT, total local potential
   LVHAR        =      F    write LOCPOT, Hartree potential only
   LELF         =      F    write electronic localiz. function (ELF)
   LORBIT       =      0    0 simple, 1 ext, 2 COOP (PROOUT), +10 PAW based schemes


 Dipole corrections
   LMONO  =      F    monopole corrections only (constant potential shift)
   LDIPOL =      F    correct potential (dipole corrections)
   IDIPOL =      0    1-x, 2-y, 3-z, 4-all directions 
   EPSILON=  1.0000000 bulk dielectric constant

 Exchange correlation treatment:
   GGA     =    RP    GGA type
   LEXCH   =     9    internal setting for exchange type
   VOSKOWN=      0    Vosko Wilk Nusair interpolation
   LHFCALC =     F    Hartree Fock is set to
   LHFONE  =     F    Hartree Fock one center treatment
   AEXX    =    0.0000 exact exchange contribution

 Linear response parameters
   LEPSILON=     F    determine dielectric tensor
   LRPA    =     F    only Hartree local field effects (RPA)
   LNABLA  =     F    use nabla operator in PAW spheres
   LVEL    =     F    velocity operator in full k-point grid
   LINTERFAST=   F  fast interpolation
   KINTER  =     0    interpolate to denser k-point grid
   CSHIFT  =0.1000    complex shift for real part using Kramers Kronig
   OMEGAMAX=  -1.0    maximum frequency
   DEG_THRESHOLD= 0.2000000E-02 threshold for treating states as degnerate
   RTIME   =   -0.100 relaxation time in fs
  (WPLASMAI=    0.000 imaginary part of plasma frequency in eV, 0.658/RTIME)
   DFIELD  = 0.0000000 0.0000000 0.0000000 field for delta impulse in time
 
 Orbital magnetization related:
   ORBITALMAG=     F  switch on orbital magnetization
   LCHIMAG   =     F  perturbation theory with respect to B field
   DQ        =  0.001000  dq finite difference perturbation B field
   LLRAUG    =     F  two centre corrections for induced B field



--------------------------------------------------------------------------------------------------------


 Static calculation
 charge density and potential will be updated during run
 non-spin polarized calculation
 RMM-DIIS sequential band-by-band and
  variant of blocked Davidson during initial phase
 perform sub-space diagonalisation
    before iterative eigenvector-optimisation
 modified Broyden-mixing scheme, WC =      100.0
 initial mixing is a Kerker type mixing with AMIX =  0.4000 and BMIX =      1.0000
 Hartree-type preconditioning will be used
 using additional bands           56
 real space projection scheme for non local part
 use partial core corrections
 calculate Harris-corrections to forces 
   (improved forces if not selfconsistent)
 use gradient corrections 
 use of overlap-Matrix (Vanderbilt PP)
 Methfessel and Paxton  Order N= 2 SIGMA  =   0.20


--------------------------------------------------------------------------------------------------------


  energy-cutoff  :      400.00
  volume of cell :    27000.00
      direct lattice vectors                 reciprocal lattice vectors
    30.000000000  0.000000000  0.000000000     0.033333333  0.000000000  0.000000000
     0.000000000 30.000000000  0.000000000     0.000000000  0.033333333  0.000000000
     0.000000000  0.000000000 30.000000000     0.000000000  0.000000000  0.033333333

  length of vectors
    30.000000000 30.000000000 30.000000000     0.033333333  0.033333333  0.033333333


 
 k-points in units of 2pi/SCALE and weight: K-points                                
   0.00000000  0.00000000  0.00000000       1.000
 
 k-points in reciprocal lattice and weights: K-points                                
   0.00000000  0.00000000  0.00000000       1.000
 
 position of ions in fractional coordinates (direct lattice) 
   0.44576020  0.32826710  0.41691983
   0.67173288  0.55423978  0.41691983
   0.55423980  0.32826710  0.41691983
   0.32826712  0.55423978  0.41691983
   0.50000000  0.38250690  0.34021317
   0.50000000  0.38250690  0.65978680
   0.50000000  0.27609440  0.50000000
   0.27609443  0.49999998  0.50000000
   0.72390557  0.49999998  0.50000000
   0.50000000  0.72390555  0.50000000
   0.61195280  0.38804720  0.34167483
   0.61195280  0.38804720  0.65832513
   0.38804722  0.61195278  0.34167483
   0.38804722  0.61195278  0.65832513
   0.38804720  0.38804720  0.34167483
   0.38804720  0.38804720  0.65832513
   0.61195278  0.61195278  0.34167483
   0.61195278  0.61195278  0.65832513
   0.44576020  0.32826710  0.58308023
   0.67173288  0.55423978  0.58308023
   0.55791699  0.44208301  0.41809300
   0.32826705  0.44576024  0.41691983
   0.55423973  0.67173293  0.41691983
   0.55423980  0.32826710  0.58308023
   0.32826712  0.55423978  0.58308023
   0.67173295  0.44576024  0.41691983
   0.44576027  0.67173293  0.41691983
   0.44208301  0.44208301  0.41809300
   0.50000000  0.38416601  0.50000000
   0.61749315  0.50000005  0.34021317
   0.61749315  0.50000005  0.65978680
   0.38250685  0.50000005  0.34021317
   0.38250685  0.50000005  0.65978680
   0.38317830  0.38317830  0.50000000
   0.61682172  0.61682172  0.50000000
   0.61682170  0.38317830  0.50000000
   0.38317828  0.61682172  0.50000000
   0.50000000  0.50000000  0.33478917
   0.50000000  0.50000000  0.66521087
   0.32826705  0.44576024  0.58308023
   0.55423973  0.67173293  0.58308023
   0.55791699  0.44208301  0.58190703
   0.44208298  0.55791702  0.41809300
   0.44208301  0.44208301  0.58190703
   0.67173295  0.44576024  0.58308023
   0.44576027  0.67173293  0.58308023
   0.55791702  0.55791702  0.41809300
   0.38416599  0.50000002  0.50000000
   0.61583401  0.50000002  0.50000000
   0.50000000  0.61749319  0.34021317
   0.50000000  0.61749319  0.65978680
   0.50000000  0.50000000  0.50000000
   0.44208298  0.55791702  0.58190703
   0.55791702  0.55791702  0.58190703
   0.50000000  0.61583404  0.50000000
   0.48004350  0.71111780  0.62095627
   0.47696987  0.74363340  0.63958553
 
 position of ions in cartesian coordinates  (Angst):
  13.37280588  9.84801292 12.50759500
  20.15198637 16.62719342 12.50759500
  16.62719412  9.84801292 12.50759500
   9.84801363 16.62719342 12.50759500
  15.00000000 11.47520705 10.20639500
  15.00000000 11.47520705 19.79360400
  15.00000000  8.28283206 15.00000000
   8.28283277 14.99999929 15.00000000
  21.71716723 14.99999929 15.00000000
  15.00000000 21.71716652 14.99999999
  18.35858397 11.64141603 10.25024500
  18.35858397 11.64141603 19.74975399
  11.64141674 18.35858326 10.25024500
  11.64141674 18.35858326 19.74975400
  11.64141603 11.64141603 10.25024500
  11.64141603 11.64141603 19.74975400
  18.35858326 18.35858326 10.25024500
  18.35858326 18.35858326 19.74975400
  13.37280588  9.84801291 17.49240700
  20.15198638 16.62719341 17.49240700
  16.73750985 13.26249015 12.54279000
   9.84801151 13.37280729 12.50759500
  16.62719200 20.15198779 12.50759500
  16.62719412  9.84801292 17.49240700
   9.84801363 16.62719342 17.49240700
  20.15198849 13.37280729 12.50759500
  13.37280800 20.15198779 12.50759500
  13.26249015 13.26249015 12.54279000
  15.00000000 11.52498029 15.00000000
  18.52479437 15.00000140 10.20639500
  18.52479437 15.00000141 19.79360400
  11.47520562 15.00000141 10.20639501
  11.47520563 15.00000141 19.79360400
  11.49534898 11.49534898 15.00000000
  18.50465172 18.50465172 15.00000000
  18.50465102 11.49534898 15.00000000
  11.49534828 18.50465172 15.00000000
  15.00000000 15.00000000 10.04367500
  15.00000000 15.00000000 19.95632599
   9.84801151 13.37280729 17.49240700
  16.62719200 20.15198779 17.49240700
  16.73750985 13.26249015 17.45721100
  13.26248944 16.73751056 12.54279001
  13.26249015 13.26249015 17.45721100
  20.15198849 13.37280729 17.49240699
  13.37280800 20.15198779 17.49240700
  16.73751056 16.73751056 12.54279000
  11.52497959 15.00000071 15.00000000
  18.47502041 15.00000071 15.00000000
  14.99999999 18.52479579 10.20639500
  15.00000000 18.52479578 19.79360400
  15.00000000 15.00000000 15.00000000
  13.26248944 16.73751057 17.45721101
  16.73751056 16.73751057 17.45721100
  15.00000000 18.47502112 15.00000000
  14.40130500 21.33353400 18.62868800
  14.30909600 22.30900200 19.18756600
 


--------------------------------------------------------------------------------------------------------


 k-point  1 :   0.0000 0.0000 0.0000  plane waves:  490521

 maximum and minimum number of plane-waves per node :    490521   490521

 maximum number of plane-waves:    490521
 maximum index in each direction: 
   IXMAX=   48   IYMAX=   48   IZMAX=   48
   IXMIN=  -48   IYMIN=  -48   IZMIN=  -48


 serial   3D FFT for wavefunctions
 parallel 3D FFT for charge:
    minimum data exchange during FFTs selected (reduces bandwidth)


 total amount of memory used by VASP MPI-rank0  5486942. kBytes
=======================================================================

   base      :      30000. kBytes
   nonlr-proj:      17127. kBytes
   fftplans  :     924480. kBytes
   grid      :    1872000. kBytes
   one-center:        886. kBytes
   wavefun   :    2642449. kBytes
 
     INWAV:  cpu time    0.0001: real time    0.0004
 Broyden mixing: mesh for mixing (old mesh)
   NGX = 97   NGY = 97   NGZ = 97
  (NGX  =300   NGY  =300   NGZ  =300)
  gives a total of 912673 points

 initial charge density was supplied:
 charge density of overlapping atoms calculated
 number of electron     560.0000000 magnetization 
 keeping initial charge density in first step


--------------------------------------------------------------------------------------------------------


 Maximum index for non-local projection operator         1763
 Maximum index for augmentation-charges         5898 (set IRDMAX)


--------------------------------------------------------------------------------------------------------


 First call to EWALD:  gamma=   0.059
 Maximum number of real-space cells 3x 3x 3
 Maximum number of reciprocal cells 3x 3x 3

    FEWALD:  cpu time    0.0214: real time    0.0214


--------------------------------------- Iteration      1(   1)  ---------------------------------------


    POTLOK:  cpu time   22.1278: real time   22.1309
    SETDIJ:  cpu time    0.1475: real time    0.1475
     EDDAV:  cpu time  520.3441: real time  520.6540
       DOS:  cpu time    0.0016: real time    0.0016
    --------------------------------------------
      LOOP:  cpu time  542.6211: real time  542.9340

 eigenvalue-minimisations  :   688
 total energy-change (2. order) : 0.4391443E+04  (-0.1005066E+05)
 number of electron     560.0000000 magnetization 
 augmentation part      560.0000000 magnetization 

 Free energy of the ion-electron system (eV)
  ---------------------------------------------------
  alpha Z        PSCENC =        75.25431677
  Ewald energy   TEWEN  =    138451.89916179
  -Hartree energ DENC   =   -181811.20416534
  -exchange      EXHF   =         0.00000000
  -V(xc)+E(xc)   XCENC  =     -1702.81185292
  PAW double counting   =     44873.02882129   -41398.84523641
  entropy T*S    EENTRO =         0.00003077
  eigenvalues    EBANDS =       817.61662446
  atomic energy  EATOM  =     45086.50549395
  Solvation  Ediel_sol  =         0.00000000
  ---------------------------------------------------
  free energy    TOTEN  =      4391.44319436 eV

  energy without entropy =     4391.44316359  energy(sigma->0) =     4391.44318666


--------------------------------------------------------------------------------------------------------




--------------------------------------- Iteration      1(   2)  ---------------------------------------


     EDDAV:  cpu time  822.1414: real time  822.1348
       DOS:  cpu time    0.0017: real time    0.0017
    --------------------------------------------
      LOOP:  cpu time  822.1431: real time  822.1365

 eigenvalue-minimisations  :  1224
 total energy-change (2. order) :-0.2377688E+04  (-0.2140268E+04)
 number of electron     560.0000000 magnetization 
 augmentation part      560.0000000 magnetization 

 Free energy of the ion-electron system (eV)
  ---------------------------------------------------
  alpha Z        PSCENC =        75.25431677
  Ewald energy   TEWEN  =    138451.89916179
  -Hartree energ DENC   =   -181811.20416534
  -exchange      EXHF   =         0.00000000
  -V(xc)+E(xc)   XCENC  =     -1702.81185292
  PAW double counting   =     44873.02882129   -41398.84523641
  entropy T*S    EENTRO =        -0.05536457
  eigenvalues    EBANDS =     -1560.01563982
  atomic energy  EATOM  =     45086.50549395
  Solvation  Ediel_sol  =         0.00000000
  ---------------------------------------------------
  free energy    TOTEN  =      2013.75553474 eV

  energy without entropy =     2013.81089931  energy(sigma->0) =     2013.76937588


--------------------------------------------------------------------------------------------------------




--------------------------------------- Iteration      1(   3)  ---------------------------------------


     EDDAV:  cpu time  703.3097: real time  703.3072
       DOS:  cpu time    0.0013: real time    0.0013
    --------------------------------------------
      LOOP:  cpu time  703.3111: real time  703.3085

 eigenvalue-minimisations  :   992
 total energy-change (2. order) :-0.1779728E+04  (-0.1671367E+04)
 number of electron     560.0000000 magnetization 
 augmentation part      560.0000000 magnetization 

 Free energy of the ion-electron system (eV)
  ---------------------------------------------------
  alpha Z        PSCENC =        75.25431677
  Ewald energy   TEWEN  =    138451.89916179
  -Hartree energ DENC   =   -181811.20416534
  -exchange      EXHF   =         0.00000000
  -V(xc)+E(xc)   XCENC  =     -1702.81185292
  PAW double counting   =     44873.02882129   -41398.84523641
  entropy T*S    EENTRO =        -0.00006692
  eigenvalues    EBANDS =     -3339.79934228
  atomic energy  EATOM  =     45086.50549395
  Solvation  Ediel_sol  =         0.00000000
  ---------------------------------------------------
  free energy    TOTEN  =       234.02712993 eV

  energy without entropy =      234.02719685  energy(sigma->0) =      234.02714666


--------------------------------------------------------------------------------------------------------




--------------------------------------- Iteration      1(   4)  ---------------------------------------


     EDDAV:  cpu time  601.1703: real time  601.1719
       DOS:  cpu time    0.0017: real time    0.0017
    --------------------------------------------
      LOOP:  cpu time  601.1720: real time  601.1736

 eigenvalue-minimisations  :   824
 total energy-change (2. order) :-0.3693836E+03  (-0.3131352E+03)
 number of electron     560.0000000 magnetization 
 augmentation part      560.0000000 magnetization 

 Free energy of the ion-electron system (eV)
  ---------------------------------------------------
  alpha Z        PSCENC =        75.25431677
  Ewald energy   TEWEN  =    138451.89916179
  -Hartree energ DENC   =   -181811.20416534
  -exchange      EXHF   =         0.00000000
  -V(xc)+E(xc)   XCENC  =     -1702.81185292
  PAW double counting   =     44873.02882129   -41398.84523641
  entropy T*S    EENTRO =         0.01276509
  eigenvalues    EBANDS =     -3709.19580305
  atomic energy  EATOM  =     45086.50549395
  Solvation  Ediel_sol  =         0.00000000
  ---------------------------------------------------
  free energy    TOTEN  =      -135.35649884 eV

  energy without entropy =     -135.36926392  energy(sigma->0) =     -135.35969011


--------------------------------------------------------------------------------------------------------




--------------------------------------- Iteration      1(   5)  ---------------------------------------


     EDDAV:  cpu time  727.3612: real time  727.3797
       DOS:  cpu time    0.0015: real time    0.0015
    CHARGE:  cpu time   32.2946: real time   32.2939
    MIXING:  cpu time    0.5669: real time    0.5669
    --------------------------------------------
      LOOP:  cpu time  760.2243: real time  760.2421

 eigenvalue-minimisations  :  1048
 total energy-change (2. order) :-0.4483543E+02  (-0.3680057E+02)
 number of electron     559.9999953 magnetization 
 augmentation part      245.0578384 magnetization 

 Broyden mixing:
  rms(total) = 0.15615E+01    rms(broyden)= 0.15607E+01
  rms(prec ) = 0.16678E+01
  weight for this iteration     100.00

 Free energy of the ion-electron system (eV)
  ---------------------------------------------------
  alpha Z        PSCENC =        75.25431677
  Ewald energy   TEWEN  =    138451.89916179
  -Hartree energ DENC   =   -181811.20416534
  -exchange      EXHF   =         0.00000000
  -V(xc)+E(xc)   XCENC  =     -1702.81185292
  PAW double counting   =     44873.02882129   -41398.84523641
  entropy T*S    EENTRO =         0.46541616
  eigenvalues    EBANDS =     -3754.48388392
  atomic energy  EATOM  =     45086.50549395
  Solvation  Ediel_sol  =         0.00000000
  ---------------------------------------------------
  free energy    TOTEN  =      -180.19192863 eV

  energy without entropy =     -180.65734479  energy(sigma->0) =     -180.30828267


--------------------------------------------------------------------------------------------------------




--------------------------------------- Iteration      1(   6)  ---------------------------------------


    POTLOK:  cpu time   18.0077: real time   18.0091
    SETDIJ:  cpu time    0.1402: real time    0.1402
    EDDIAG:  cpu time   93.2662: real time   93.2653
  RMM-DIIS:  cpu time  245.5401: real time  245.5389
    ORTHCH:  cpu time   19.9429: real time   19.9425
       DOS:  cpu time    0.0021: real time    0.0021
    CHARGE:  cpu time   32.4554: real time   32.4546
    MIXING:  cpu time    0.6399: real time    0.6399
    --------------------------------------------
      LOOP:  cpu time  409.9945: real time  409.9927

 eigenvalue-minimisations  :   725
 total energy-change (2. order) :-0.2495868E+00  (-0.6115733E+01)
 number of electron     559.9999968 magnetization 
 augmentation part      240.4420468 magnetization 

 Broyden mixing:
  rms(total) = 0.24174E+01    rms(broyden)= 0.24172E+01
  rms(prec ) = 0.27792E+01
  weight for this iteration     100.00

 eigenvalues of (default mixing * dielectric matrix)
  average eigenvalue GAMMA=   0.3254
  0.3254

 Free energy of the ion-electron system (eV)
  ---------------------------------------------------
  alpha Z        PSCENC =        75.25431677
  Ewald energy   TEWEN  =    138451.89916179
  -Hartree energ DENC   =   -182213.18475750
  -exchange      EXHF   =         0.00000000
  -V(xc)+E(xc)   XCENC  =     -1696.45681542
  PAW double counting   =     45648.67083340   -42147.99700119
  entropy T*S    EENTRO =        -0.17706370
  eigenvalues    EBANDS =     -3384.95568350
  atomic energy  EATOM  =     45086.50549395
  Solvation  Ediel_sol  =         0.00000000
  ---------------------------------------------------
  free energy    TOTEN  =      -180.44151540 eV

  energy without entropy =     -180.26445170  energy(sigma->0) =     -180.39724947


--------------------------------------------------------------------------------------------------------




--------------------------------------- Iteration      1(   7)  ---------------------------------------


    POTLOK:  cpu time   18.0448: real time   18.0452
    SETDIJ:  cpu time    0.1212: real time    0.1212
    EDDIAG:  cpu time   96.0545: real time   96.0554
  RMM-DIIS:  cpu time  304.2522: real time  304.2504
    ORTHCH:  cpu time   20.8600: real time   20.8595
       DOS:  cpu time    0.0021: real time    0.0021
    CHARGE:  cpu time   34.0107: real time   34.0099
    MIXING:  cpu time    0.7209: real time    0.7209
    --------------------------------------------
      LOOP:  cpu time  474.0664: real time  474.0645

 eigenvalue-minimisations  :   850
 total energy-change (2. order) :-0.2026495E+01  (-0.2032632E+01)
 number of electron     559.9999925 magnetization 
 augmentation part      240.4831881 magnetization 

 Broyden mixing:
  rms(total) = 0.26225E+01    rms(broyden)= 0.26222E+01
  rms(prec ) = 0.31719E+01
  weight for this iteration     100.00

 eigenvalues of (default mixing * dielectric matrix)
  average eigenvalue GAMMA=   0.2900
  0.4390  0.1410

 Free energy of the ion-electron system (eV)
  ---------------------------------------------------
  alpha Z        PSCENC =        75.25431677
  Ewald energy   TEWEN  =    138451.89916179
  -Hartree energ DENC   =   -182296.64820891
  -exchange      EXHF   =         0.00000000
  -V(xc)+E(xc)   XCENC  =     -1696.70807994
  PAW double counting   =     45716.29679844   -42213.25621684
  entropy T*S    EENTRO =         0.05048159
  eigenvalues    EBANDS =     -3305.86175736
  atomic energy  EATOM  =     45086.50549395
  Solvation  Ediel_sol  =         0.00000000
  ---------------------------------------------------
  free energy    TOTEN  =      -182.46801051 eV

  energy without entropy =     -182.51849210  energy(sigma->0) =     -182.48063091


--------------------------------------------------------------------------------------------------------




--------------------------------------- Iteration      1(   8)  ---------------------------------------


    POTLOK:  cpu time   19.5733: real time   19.7612
    SETDIJ:  cpu time    0.1482: real time    0.1482
    EDDIAG:  cpu time   98.5515: real time   98.5505
  RMM-DIIS:  cpu time  293.5051: real time  293.5058
    ORTHCH:  cpu time   20.9809: real time   20.9804
       DOS:  cpu time    0.0019: real time    0.0019
    CHARGE:  cpu time   34.6905: real time   34.6896
    MIXING:  cpu time    0.7775: real time    0.7774
    --------------------------------------------
      LOOP:  cpu time  468.2289: real time  468.4151

 eigenvalue-minimisations  :   819
 total energy-change (2. order) :-0.2071816E+01  (-0.7212617E+00)
 number of electron     559.9999920 magnetization 
 augmentation part      240.0722195 magnetization 

 Broyden mixing:
  rms(total) = 0.25462E+01    rms(broyden)= 0.25459E+01
  rms(prec ) = 0.30456E+01
  weight for this iteration     100.00

 eigenvalues of (default mixing * dielectric matrix)
  average eigenvalue GAMMA=   0.2865
  0.5852  0.1478  0.1264

 Free energy of the ion-electron system (eV)
  ---------------------------------------------------
  alpha Z        PSCENC =        75.25431677
  Ewald energy   TEWEN  =    138451.89916179
  -Hartree energ DENC   =   -182332.28034406
  -exchange      EXHF   =         0.00000000
  -V(xc)+E(xc)   XCENC  =     -1696.73975150
  PAW double counting   =     45769.10900356   -42264.11611641
  entropy T*S    EENTRO =        -0.12928921
  eigenvalues    EBANDS =     -3274.04230168
  atomic energy  EATOM  =     45086.50549395
  Solvation  Ediel_sol  =         0.00000000
  ---------------------------------------------------
  free energy    TOTEN  =      -184.53982679 eV

  energy without entropy =     -184.41053758  energy(sigma->0) =     -184.50750449


--------------------------------------------------------------------------------------------------------




--------------------------------------- Iteration      1(   9)  ---------------------------------------


    POTLOK:  cpu time   19.7667: real time   19.7689
    SETDIJ:  cpu time    0.1503: real time    0.1503
    EDDIAG:  cpu time   98.3436: real time   98.3423
  RMM-DIIS:  cpu time  261.2706: real time  261.2723
    ORTHCH:  cpu time   20.7782: real time   20.7781
       DOS:  cpu time    0.0021: real time    0.0021
    CHARGE:  cpu time   34.5448: real time   34.5446
    MIXING:  cpu time    0.8135: real time    0.8135
    --------------------------------------------
      LOOP:  cpu time  435.6697: real time  435.6723

 eigenvalue-minimisations  :   734
 total energy-change (2. order) : 0.9573556E+00  (-0.5665998E+00)
 number of electron     559.9999946 magnetization 
 augmentation part      240.5892328 magnetization 

 Broyden mixing:
  rms(total) = 0.25073E+01    rms(broyden)= 0.25069E+01
  rms(prec ) = 0.28929E+01
  weight for this iteration     100.00

 eigenvalues of (default mixing * dielectric matrix)
  average eigenvalue GAMMA=   0.2827
  0.7090  0.1600  0.1600  0.1017

 Free energy of the ion-electron system (eV)
  ---------------------------------------------------
  alpha Z        PSCENC =        75.25431677
  Ewald energy   TEWEN  =    138451.89916179
  -Hartree energ DENC   =   -182347.26776255
  -exchange      EXHF   =         0.00000000
  -V(xc)+E(xc)   XCENC  =     -1696.74769659
  PAW double counting   =     45827.02593991   -42319.92329528
  entropy T*S    EENTRO =        -0.17718032
  eigenvalues    EBANDS =     -3260.15144889
  atomic energy  EATOM  =     45086.50549395
  Solvation  Ediel_sol  =         0.00000000
  ---------------------------------------------------
  free energy    TOTEN  =      -183.58247121 eV

  energy without entropy =     -183.40529089  energy(sigma->0) =     -183.53817613


--------------------------------------------------------------------------------------------------------




--------------------------------------- Iteration      1(  10)  ---------------------------------------


    POTLOK:  cpu time   18.9736: real time   18.9770
    SETDIJ:  cpu time    0.1484: real time    0.1484
    EDDIAG:  cpu time   98.8975: real time   98.9015
  RMM-DIIS:  cpu time  260.6731: real time  260.6800
    ORTHCH:  cpu time   20.9920: real time   20.9915
       DOS:  cpu time    0.0021: real time    0.0021
    CHARGE:  cpu time   34.7132: real time   34.7124
    MIXING:  cpu time    0.8412: real time    0.8412
    --------------------------------------------
      LOOP:  cpu time  435.2410: real time  435.2541

 eigenvalue-minimisations  :   729
 total energy-change (2. order) : 0.2943688E+01  (-0.4070323E+00)
 number of electron     559.9999930 magnetization 
 augmentation part      241.2414663 magnetization 

 Broyden mixing:
  rms(total) = 0.22605E+01    rms(broyden)= 0.22601E+01
  rms(prec ) = 0.26099E+01
  weight for this iteration     100.00

 eigenvalues of (default mixing * dielectric matrix)
  average eigenvalue GAMMA=   0.2681
  0.7831  0.1702  0.1702  0.1275  0.0893

 Free energy of the ion-electron system (eV)
  ---------------------------------------------------
  alpha Z        PSCENC =        75.25431677
  Ewald energy   TEWEN  =    138451.89916179
  -Hartree energ DENC   =   -182374.07529237
  -exchange      EXHF   =         0.00000000
  -V(xc)+E(xc)   XCENC  =     -1696.66525493
  PAW double counting   =     45880.63401389   -42371.66930062
  entropy T*S    EENTRO =        -0.07995352
  eigenvalues    EBANDS =     -3232.44196781
  atomic energy  EATOM  =     45086.50549395
  Solvation  Ediel_sol  =         0.00000000
  ---------------------------------------------------
  free energy    TOTEN  =      -180.63878286 eV

  energy without entropy =     -180.55882933  energy(sigma->0) =     -180.61879447


--------------------------------------------------------------------------------------------------------




--------------------------------------- Iteration      1(  11)  ---------------------------------------


    POTLOK:  cpu time   19.2016: real time   19.2021
    SETDIJ:  cpu time    0.1461: real time    0.1461
    EDDIAG:  cpu time   98.5841: real time   98.5850
  RMM-DIIS:  cpu time  258.2367: real time  258.2349
    ORTHCH:  cpu time   20.8543: real time   20.8539
       DOS:  cpu time    0.0021: real time    0.0021
    CHARGE:  cpu time   34.2230: real time   34.2223
    MIXING:  cpu time    0.9066: real time    0.9067
    --------------------------------------------
      LOOP:  cpu time  432.1543: real time  432.1530

 eigenvalue-minimisations  :   723
 total energy-change (2. order) : 0.1901056E+01  (-0.2344731E+00)
 number of electron     559.9999934 magnetization 
 augmentation part      241.5291820 magnetization 

 Broyden mixing:
  rms(total) = 0.18136E+01    rms(broyden)= 0.18133E+01
  rms(prec ) = 0.20871E+01
  weight for this iteration     100.00

 eigenvalues of (default mixing * dielectric matrix)
  average eigenvalue GAMMA=   0.2662
  0.8718  0.2072  0.2072  0.1122  0.1122  0.0867

 Free energy of the ion-electron system (eV)
  ---------------------------------------------------
  alpha Z        PSCENC =        75.25431677
  Ewald energy   TEWEN  =    138451.89916179
  -Hartree energ DENC   =   -182394.49215321
  -exchange      EXHF   =         0.00000000
  -V(xc)+E(xc)   XCENC  =     -1696.53590087
  PAW double counting   =     45917.24962909   -42406.83374803
  entropy T*S    EENTRO =        -0.10652234
  eigenvalues    EBANDS =     -3211.67800423
  atomic energy  EATOM  =     45086.50549395
  Solvation  Ediel_sol  =         0.00000000
  ---------------------------------------------------
  free energy    TOTEN  =      -178.73772708 eV

  energy without entropy =     -178.63120474  energy(sigma->0) =     -178.71109650


--------------------------------------------------------------------------------------------------------




--------------------------------------- Iteration      1(  12)  ---------------------------------------


    POTLOK:  cpu time   18.9321: real time   18.9323
    SETDIJ:  cpu time    0.1489: real time    0.1489
    EDDIAG:  cpu time   98.9856: real time   98.9866
  RMM-DIIS:  cpu time  260.3251: real time  260.3237
    ORTHCH:  cpu time   20.6693: real time   20.6689
       DOS:  cpu time    0.0021: real time    0.0020
    CHARGE:  cpu time   34.8180: real time   34.8173
    MIXING:  cpu time    0.9924: real time    0.9924
    --------------------------------------------
      LOOP:  cpu time  434.8735: real time  434.8721

 eigenvalue-minimisations  :   723
 total energy-change (2. order) : 0.6751649E+00  (-0.2024157E+00)
 number of electron     559.9999940 magnetization 
 augmentation part      241.5063049 magnetization 

 Broyden mixing:
  rms(total) = 0.18323E+01    rms(broyden)= 0.18321E+01
  rms(prec ) = 0.22187E+01
  weight for this iteration     100.00

 eigenvalues of (default mixing * dielectric matrix)
  average eigenvalue GAMMA=   0.2579
  0.9357  0.2321  0.2321  0.1149  0.1149  0.0878  0.0878

 Free energy of the ion-electron system (eV)
  ---------------------------------------------------
  alpha Z        PSCENC =        75.25431677
  Ewald energy   TEWEN  =    138451.89916179
  -Hartree energ DENC   =   -182416.66613626
  -exchange      EXHF   =         0.00000000
  -V(xc)+E(xc)   XCENC  =     -1696.30293719
  PAW double counting   =     45957.86679272   -42445.74730138
  entropy T*S    EENTRO =        -0.09345871
  eigenvalues    EBANDS =     -3190.77849387
  atomic energy  EATOM  =     45086.50549395
  Solvation  Ediel_sol  =         0.00000000
  ---------------------------------------------------
  free energy    TOTEN  =      -178.06256217 eV

  energy without entropy =     -177.96910346  energy(sigma->0) =     -178.03919749


--------------------------------------------------------------------------------------------------------




--------------------------------------- Iteration      1(  13)  ---------------------------------------


    POTLOK:  cpu time   19.2632: real time   19.2635
    SETDIJ:  cpu time    0.1497: real time    0.1497
    EDDIAG:  cpu time  100.3195: real time  100.3196
  RMM-DIIS:  cpu time  260.6155: real time  260.6158
    ORTHCH:  cpu time   20.9310: real time   20.9306
       DOS:  cpu time    0.0022: real time    0.0021
    CHARGE:  cpu time   33.3237: real time   33.3230
    MIXING:  cpu time    0.9660: real time    0.9660
    --------------------------------------------
      LOOP:  cpu time  435.5708: real time  435.5703

 eigenvalue-minimisations  :   725
 total energy-change (2. order) : 0.2730089E+00  (-0.1225547E+00)
 number of electron     559.9999941 magnetization 
 augmentation part      241.5327528 magnetization 

 Broyden mixing:
  rms(total) = 0.17444E+01    rms(broyden)= 0.17441E+01
  rms(prec ) = 0.20869E+01
  weight for this iteration     100.00

 eigenvalues of (default mixing * dielectric matrix)
  average eigenvalue GAMMA=   0.2712
  1.0433  0.3020  0.3020  0.1617  0.1011  0.1011  0.1007  0.0579

 Free energy of the ion-electron system (eV)
  ---------------------------------------------------
  alpha Z        PSCENC =        75.25431677
  Ewald energy   TEWEN  =    138451.89916179
  -Hartree energ DENC   =   -182432.00185032
  -exchange      EXHF   =         0.00000000
  -V(xc)+E(xc)   XCENC  =     -1696.08856556
  PAW double counting   =     45987.61281227   -42474.19618608
  entropy T*S    EENTRO =        -0.06394701
  eigenvalues    EBANDS =     -3176.71078904
  atomic energy  EATOM  =     45086.50549395
  Solvation  Ediel_sol  =         0.00000000
  ---------------------------------------------------
  free energy    TOTEN  =      -177.78955323 eV

  energy without entropy =     -177.72560622  energy(sigma->0) =     -177.77356648


--------------------------------------------------------------------------------------------------------




--------------------------------------- Iteration      1(  14)  ---------------------------------------


    POTLOK:  cpu time   18.7707: real time   18.7709
    SETDIJ:  cpu time    0.1521: real time    0.1521
    EDDIAG:  cpu time   98.4538: real time   98.4526
  RMM-DIIS:  cpu time  232.5441: real time  232.5423
    ORTHCH:  cpu time   19.2575: real time   19.2570
       DOS:  cpu time    0.0020: real time    0.0020
    CHARGE:  cpu time   30.4185: real time   30.4178
    MIXING:  cpu time    0.8521: real time    0.8521
    --------------------------------------------
      LOOP:  cpu time  400.4507: real time  400.4467

 eigenvalue-minimisations  :   714
 total energy-change (2. order) : 0.6451028E+00  (-0.1585456E+00)
 number of electron     559.9999916 magnetization 
 augmentation part      241.4639686 magnetization 

 Broyden mixing:
  rms(total) = 0.17182E+01    rms(broyden)= 0.17179E+01
  rms(prec ) = 0.19623E+01
  weight for this iteration     100.00

 eigenvalues of (default mixing * dielectric matrix)
  average eigenvalue GAMMA=   0.2860
  1.2206  0.3544  0.3544  0.1433  0.1433  0.1169  0.0928  0.0928  0.0552

 Free energy of the ion-electron system (eV)
  ---------------------------------------------------
  alpha Z        PSCENC =        75.25431677
  Ewald energy   TEWEN  =    138451.89916179
  -Hartree energ DENC   =   -182468.80145684
  -exchange      EXHF   =         0.00000000
  -V(xc)+E(xc)   XCENC  =     -1695.62853340
  PAW double counting   =     46042.88102418   -42526.96121399
  entropy T*S    EENTRO =        -0.17183855
  eigenvalues    EBANDS =     -3142.12140437
  atomic energy  EATOM  =     45086.50549395
  Solvation  Ediel_sol  =         0.00000000
  ---------------------------------------------------
  free energy    TOTEN  =      -177.14445045 eV

  energy without entropy =     -176.97261190  energy(sigma->0) =     -177.10149082


--------------------------------------------------------------------------------------------------------




--------------------------------------- Iteration      1(  15)  ---------------------------------------


    POTLOK:  cpu time   16.4815: real time   16.5981
    SETDIJ:  cpu time    0.1335: real time    0.1335
    EDDIAG:  cpu time   88.8287: real time   88.8317
  RMM-DIIS:  cpu time  220.1420: real time  220.1435
    ORTHCH:  cpu time   18.9739: real time   18.9740
       DOS:  cpu time    0.0020: real time    0.0020
    CHARGE:  cpu time   29.9424: real time   29.9426
    MIXING:  cpu time    0.9680: real time    0.9680
    --------------------------------------------
      LOOP:  cpu time  375.4719: real time  375.5935

 eigenvalue-minimisations  :   704
 total energy-change (2. order) : 0.3188698E+00  (-0.1456132E+00)
 number of electron     559.9999961 magnetization 
 augmentation part      241.1450574 magnetization 

 Broyden mixing:
  rms(total) = 0.16974E+01    rms(broyden)= 0.16972E+01
  rms(prec ) = 0.19644E+01
  weight for this iteration     100.00

 eigenvalues of (default mixing * dielectric matrix)
  average eigenvalue GAMMA=   0.2915
  1.3603  0.4627  0.3036  0.1779  0.1779  0.0990  0.0990  0.1000  0.0806  0.0543

 Free energy of the ion-electron system (eV)
  ---------------------------------------------------
  alpha Z        PSCENC =        75.25431677
  Ewald energy   TEWEN  =    138451.89916179
  -Hartree energ DENC   =   -182512.99262888
  -exchange      EXHF   =         0.00000000
  -V(xc)+E(xc)   XCENC  =     -1695.06511647
  PAW double counting   =     46109.57738064   -42590.58943292
  entropy T*S    EENTRO =        -0.06221879
  eigenvalues    EBANDS =     -3101.35253673
  atomic energy  EATOM  =     45086.50549395
  Solvation  Ediel_sol  =         0.00000000
  ---------------------------------------------------
  free energy    TOTEN  =      -176.82558064 eV

  energy without entropy =     -176.76336184  energy(sigma->0) =     -176.81002594


--------------------------------------------------------------------------------------------------------




--------------------------------------- Iteration      1(  16)  ---------------------------------------


    POTLOK:  cpu time   16.0703: real time   16.0725
    SETDIJ:  cpu time    0.1288: real time    0.1288
    EDDIAG:  cpu time   88.3618: real time   88.3640
  RMM-DIIS:  cpu time  223.1752: real time  223.1752
    ORTHCH:  cpu time   18.9523: real time   18.9518
       DOS:  cpu time    0.0017: real time    0.0017
    CHARGE:  cpu time   30.0517: real time   30.0510
    MIXING:  cpu time    1.0617: real time    1.0616
    --------------------------------------------
      LOOP:  cpu time  377.8035: real time  377.8067

 eigenvalue-minimisations  :   716
 total energy-change (2. order) :-0.1245234E+00  (-0.9229296E-01)
 number of electron     559.9999947 magnetization 
 augmentation part      241.1152168 magnetization 

 Broyden mixing:
  rms(total) = 0.19603E+01    rms(broyden)= 0.19601E+01
  rms(prec ) = 0.23824E+01
  weight for this iteration     100.00

 eigenvalues of (default mixing * dielectric matrix)
  average eigenvalue GAMMA=   0.2792
  1.3977  0.5129  0.2815  0.1933  0.1933  0.1033  0.1033  0.0957  0.0858  0.0537
  0.0512

 Free energy of the ion-electron system (eV)
  ---------------------------------------------------
  alpha Z        PSCENC =        75.25431677
  Ewald energy   TEWEN  =    138451.89916179
  -Hartree energ DENC   =   -182533.36300255
  -exchange      EXHF   =         0.00000000
  -V(xc)+E(xc)   XCENC  =     -1694.70880428
  PAW double counting   =     46147.53252500   -42626.75076717
  entropy T*S    EENTRO =        -0.01411762
  eigenvalues    EBANDS =     -3083.30490997
  atomic energy  EATOM  =     45086.50549395
  Solvation  Ediel_sol  =         0.00000000
  ---------------------------------------------------
  free energy    TOTEN  =      -176.95010407 eV

  energy without entropy =     -176.93598646  energy(sigma->0) =     -176.94657467


--------------------------------------------------------------------------------------------------------




--------------------------------------- Iteration      1(  17)  ---------------------------------------


    POTLOK:  cpu time   16.1245: real time   16.1262
    SETDIJ:  cpu time    0.1232: real time    0.1232
    EDDIAG:  cpu time   88.9499: real time   88.9502
  RMM-DIIS:  cpu time  226.3620: real time  226.3610
    ORTHCH:  cpu time   19.0285: real time   19.0280
       DOS:  cpu time    0.0019: real time    0.0019
    CHARGE:  cpu time   30.0401: real time   30.0394
    MIXING:  cpu time    1.2018: real time    1.2018
    --------------------------------------------
      LOOP:  cpu time  381.8318: real time  381.8317

 eigenvalue-minimisations  :   721
 total energy-change (2. order) : 0.1042439E+01  (-0.4417527E-01)
 number of electron     559.9999939 magnetization 
 augmentation part      241.1778405 magnetization 

 Broyden mixing:
  rms(total) = 0.10279E+01    rms(broyden)= 0.10276E+01
  rms(prec ) = 0.11832E+01
  weight for this iteration     100.00

 eigenvalues of (default mixing * dielectric matrix)
  average eigenvalue GAMMA=   0.2909
  1.4904  0.6321  0.2834  0.2834  0.1438  0.1438  0.1441  0.0972  0.0972  0.0733
  0.0553  0.0461

 Free energy of the ion-electron system (eV)
  ---------------------------------------------------
  alpha Z        PSCENC =        75.25431677
  Ewald energy   TEWEN  =    138451.89916179
  -Hartree energ DENC   =   -182544.56425390
  -exchange      EXHF   =         0.00000000
  -V(xc)+E(xc)   XCENC  =     -1694.56039542
  PAW double counting   =     46161.44583083   -42639.94518782
  entropy T*S    EENTRO =        -0.07778117
  eigenvalues    EBANDS =     -3071.86484977
  atomic energy  EATOM  =     45086.50549395
  Solvation  Ediel_sol  =         0.00000000
  ---------------------------------------------------
  free energy    TOTEN  =      -175.90766473 eV

  energy without entropy =     -175.82988356  energy(sigma->0) =     -175.88821944


--------------------------------------------------------------------------------------------------------




--------------------------------------- Iteration      1(  18)  ---------------------------------------


    POTLOK:  cpu time   16.0902: real time   16.0930
    SETDIJ:  cpu time    0.1216: real time    0.1216
    EDDIAG:  cpu time   88.2247: real time   88.2252
  RMM-DIIS:  cpu time  217.8057: real time  217.8093
    ORTHCH:  cpu time   18.9035: real time   18.9034
       DOS:  cpu time    0.0018: real time    0.0018
    CHARGE:  cpu time   30.9554: real time   30.9552
    MIXING:  cpu time    1.1317: real time    1.1317
    --------------------------------------------
      LOOP:  cpu time  373.2346: real time  373.2412

 eigenvalue-minimisations  :   700
 total energy-change (2. order) :-0.9388354E-01  (-0.5490368E-01)
 number of electron     559.9999938 magnetization 
 augmentation part      241.1535170 magnetization 

 Broyden mixing:
  rms(total) = 0.13897E+01    rms(broyden)= 0.13895E+01
  rms(prec ) = 0.16791E+01
  weight for this iteration     100.00

 eigenvalues of (default mixing * dielectric matrix)
  average eigenvalue GAMMA=   0.2919
  1.5254  0.7255  0.3306  0.3306  0.1514  0.1514  0.1331  0.0962  0.0962  0.0784
  0.0784  0.0541  0.0430

 Free energy of the ion-electron system (eV)
  ---------------------------------------------------
  alpha Z        PSCENC =        75.25431677
  Ewald energy   TEWEN  =    138451.89916179
  -Hartree energ DENC   =   -182563.41132614
  -exchange      EXHF   =         0.00000000
  -V(xc)+E(xc)   XCENC  =     -1694.31411386
  PAW double counting   =     46184.27201956   -42661.43927553
  entropy T*S    EENTRO =         0.06238762
  eigenvalues    EBANDS =     -3054.83021244
  atomic energy  EATOM  =     45086.50549395
  Solvation  Ediel_sol  =         0.00000000
  ---------------------------------------------------
  free energy    TOTEN  =      -176.00154827 eV

  energy without entropy =     -176.06393589  energy(sigma->0) =     -176.01714518


--------------------------------------------------------------------------------------------------------




--------------------------------------- Iteration      1(  19)  ---------------------------------------


    POTLOK:  cpu time   16.1133: real time   16.1152
    SETDIJ:  cpu time    0.1253: real time    0.1253
    EDDIAG:  cpu time   87.9464: real time   87.9472
  RMM-DIIS:  cpu time  218.8186: real time  218.8213
    ORTHCH:  cpu time   18.9489: real time   18.9489
       DOS:  cpu time    0.0018: real time    0.0018
    CHARGE:  cpu time   30.2939: real time   30.2937
    MIXING:  cpu time    1.2148: real time    1.2148
    --------------------------------------------
      LOOP:  cpu time  373.4630: real time  373.4681

 eigenvalue-minimisations  :   706
 total energy-change (2. order) : 0.2437662E+00  (-0.3419715E-01)
 number of electron     559.9999943 magnetization 
 augmentation part      241.1923733 magnetization 

 Broyden mixing:
  rms(total) = 0.91326E+00    rms(broyden)= 0.91302E+00
  rms(prec ) = 0.10317E+01
  weight for this iteration     100.00

 eigenvalues of (default mixing * dielectric matrix)
  average eigenvalue GAMMA=   0.3063
  1.5465  0.9745  0.3753  0.3753  0.1701  0.1701  0.1209  0.1209  0.0992  0.0992
  0.0703  0.0703  0.0540  0.0418

 Free energy of the ion-electron system (eV)
  ---------------------------------------------------
  alpha Z        PSCENC =        75.25431677
  Ewald energy   TEWEN  =    138451.89916179
  -Hartree energ DENC   =   -182573.62424562
  -exchange      EXHF   =         0.00000000
  -V(xc)+E(xc)   XCENC  =     -1694.16793706
  PAW double counting   =     46194.15111462   -42670.56585742
  entropy T*S    EENTRO =        -0.04008931
  eigenvalues    EBANDS =     -3045.16973983
  atomic energy  EATOM  =     45086.50549395
  Solvation  Ediel_sol  =         0.00000000
  ---------------------------------------------------
  free energy    TOTEN  =      -175.75778211 eV

  energy without entropy =     -175.71769280  energy(sigma->0) =     -175.74775978


--------------------------------------------------------------------------------------------------------




--------------------------------------- Iteration      1(  20)  ---------------------------------------


    POTLOK:  cpu time   15.9135: real time   15.9156
    SETDIJ:  cpu time    0.1201: real time    0.1201
    EDDIAG:  cpu time   87.9252: real time   87.9283
  RMM-DIIS:  cpu time  218.8231: real time  218.8219
    ORTHCH:  cpu time   18.9915: real time   18.9910
       DOS:  cpu time    0.0018: real time    0.0018
    CHARGE:  cpu time   30.4245: real time   30.4237
    MIXING:  cpu time    1.3487: real time    1.3486
    --------------------------------------------
      LOOP:  cpu time  373.5482: real time  373.5510

 eigenvalue-minimisations  :   698
 total energy-change (2. order) : 0.5248151E-01  (-0.3653495E-01)
 number of electron     559.9999954 magnetization 
 augmentation part      241.1597932 magnetization 

 Broyden mixing:
  rms(total) = 0.96004E+00    rms(broyden)= 0.95987E+00
  rms(prec ) = 0.10953E+01
  weight for this iteration     100.00

 eigenvalues of (default mixing * dielectric matrix)
  average eigenvalue GAMMA=   0.3130
  1.5809  1.1276  0.4034  0.4034  0.1942  0.1942  0.1320  0.1320  0.0975  0.0975
  0.0934  0.0712  0.0712  0.0540  0.0420

 Free energy of the ion-electron system (eV)
  ---------------------------------------------------
  alpha Z        PSCENC =        75.25431677
  Ewald energy   TEWEN  =    138451.89916179
  -Hartree energ DENC   =   -182596.19403628
  -exchange      EXHF   =         0.00000000
  -V(xc)+E(xc)   XCENC  =     -1693.91944380
  PAW double counting   =     46208.32920553   -42683.46957308
  entropy T*S    EENTRO =        -0.03950009
  eigenvalues    EBANDS =     -3024.07092540
  atomic energy  EATOM  =     45086.50549395
  Solvation  Ediel_sol  =         0.00000000
  ---------------------------------------------------
  free energy    TOTEN  =      -175.70530060 eV

  energy without entropy =     -175.66580051  energy(sigma->0) =     -175.69542558


--------------------------------------------------------------------------------------------------------




--------------------------------------- Iteration      1(  21)  ---------------------------------------


    POTLOK:  cpu time   16.5947: real time   16.5968
    SETDIJ:  cpu time    0.1332: real time    0.1332
    EDDIAG:  cpu time   88.4867: real time   88.4861
  RMM-DIIS:  cpu time  217.3296: real time  217.3281
    ORTHCH:  cpu time   19.0055: real time   19.0050
       DOS:  cpu time    0.0017: real time    0.0017
    CHARGE:  cpu time   30.0521: real time   30.0513
    MIXING:  cpu time    1.3281: real time    1.3280
    --------------------------------------------
      LOOP:  cpu time  372.9314: real time  372.9303

 eigenvalue-minimisations  :   699
 total energy-change (2. order) : 0.9990971E-01  (-0.2776745E-01)
 number of electron     559.9999957 magnetization 
 augmentation part      241.1493912 magnetization 

 Broyden mixing:
  rms(total) = 0.98684E+00    rms(broyden)= 0.98670E+00
  rms(prec ) = 0.11339E+01
  weight for this iteration     100.00

 eigenvalues of (default mixing * dielectric matrix)
  average eigenvalue GAMMA=   0.3163
  1.7411  1.0670  0.4597  0.4597  0.2137  0.2137  0.1429  0.1429  0.0978  0.0978
  0.1082  0.0775  0.0775  0.0648  0.0541  0.0419

 Free energy of the ion-electron system (eV)
  ---------------------------------------------------
  alpha Z        PSCENC =        75.25431677
  Ewald energy   TEWEN  =    138451.89916179
  -Hartree energ DENC   =   -182612.94449071
  -exchange      EXHF   =         0.00000000
  -V(xc)+E(xc)   XCENC  =     -1693.74586271
  PAW double counting   =     46216.36647652   -42690.66137075
  entropy T*S    EENTRO =        -0.08551797
  eigenvalues    EBANDS =     -3008.19359779
  atomic energy  EATOM  =     45086.50549395
  Solvation  Ediel_sol  =         0.00000000
  ---------------------------------------------------
  free energy    TOTEN  =      -175.60539089 eV

  energy without entropy =     -175.51987293  energy(sigma->0) =     -175.58401140


--------------------------------------------------------------------------------------------------------




--------------------------------------- Iteration      1(  22)  ---------------------------------------


    POTLOK:  cpu time   16.6504: real time   16.6526
    SETDIJ:  cpu time    0.1241: real time    0.1241
    EDDIAG:  cpu time   88.4398: real time   88.4385
  RMM-DIIS:  cpu time  217.7718: real time  217.7712
    ORTHCH:  cpu time   19.0341: real time   19.0336
       DOS:  cpu time    0.0020: real time    0.0020
    CHARGE:  cpu time   29.9489: real time   29.9482
    MIXING:  cpu time    1.3665: real time    1.3664
    --------------------------------------------
      LOOP:  cpu time  373.3375: real time  373.3366

 eigenvalue-minimisations  :   699
 total energy-change (2. order) : 0.8194377E-01  (-0.2773003E-01)
 number of electron     559.9999945 magnetization 
 augmentation part      241.1755957 magnetization 

 Broyden mixing:
  rms(total) = 0.88780E+00    rms(broyden)= 0.88764E+00
  rms(prec ) = 0.10485E+01
  weight for this iteration     100.00

 eigenvalues of (default mixing * dielectric matrix)
  average eigenvalue GAMMA=   0.3254
  1.8589  1.2261  0.4689  0.4689  0.2276  0.2276  0.1568  0.1568  0.0995  0.0995
  0.1235  0.1162  0.0731  0.0731  0.0546  0.0584  0.0420

 Free energy of the ion-electron system (eV)
  ---------------------------------------------------
  alpha Z        PSCENC =        75.25431677
  Ewald energy   TEWEN  =    138451.89916179
  -Hartree energ DENC   =   -182625.76507464
  -exchange      EXHF   =         0.00000000
  -V(xc)+E(xc)   XCENC  =     -1693.59384076
  PAW double counting   =     46223.82043298   -42697.39300059
  entropy T*S    EENTRO =        -0.08377574
  eigenvalues    EBANDS =     -2996.16716088
  atomic energy  EATOM  =     45086.50549395
  Solvation  Ediel_sol  =         0.00000000
  ---------------------------------------------------
  free energy    TOTEN  =      -175.52344713 eV

  energy without entropy =     -175.43967138  energy(sigma->0) =     -175.50250319


--------------------------------------------------------------------------------------------------------




--------------------------------------- Iteration      1(  23)  ---------------------------------------


    POTLOK:  cpu time   16.0754: real time   16.0780
    SETDIJ:  cpu time    0.1333: real time    0.1333
    EDDIAG:  cpu time   88.7059: real time   88.7048
  RMM-DIIS:  cpu time  219.3136: real time  219.3463
    ORTHCH:  cpu time   19.0096: real time   19.0092
       DOS:  cpu time    0.0018: real time    0.0018
    CHARGE:  cpu time   29.9582: real time   29.9575
    MIXING:  cpu time    1.4184: real time    1.4183
    --------------------------------------------
      LOOP:  cpu time  374.6162: real time  374.6493

 eigenvalue-minimisations  :   701
 total energy-change (2. order) : 0.8937424E-01  (-0.2614724E-01)
 number of electron     559.9999944 magnetization 
 augmentation part      241.0273045 magnetization 

 Broyden mixing:
  rms(total) = 0.76616E+00    rms(broyden)= 0.76596E+00
  rms(prec ) = 0.87989E+00
  weight for this iteration     100.00

 eigenvalues of (default mixing * dielectric matrix)
  average eigenvalue GAMMA=   0.3285
  1.9979  1.3052  0.4974  0.3800  0.3800  0.1714  0.1714  0.1446  0.1446  0.1356
[...]
 -0.007  -0.012   0.004   0.004   0.006  -0.006  -0.011   0.004
 -0.011  -0.020   0.006   0.007   0.009  -0.011  -0.019   0.006
 -0.015  -0.005   0.013   0.000   0.022  -0.014  -0.005   0.012
  0.000  -0.023  -0.006  -0.015  -0.000   0.000  -0.022  -0.006
 -0.022   0.000   0.009  -0.005  -0.016  -0.022   0.000   0.009
 -0.018  -0.006   0.015   0.000   0.027  -0.017  -0.006   0.015
  0.000  -0.027  -0.007  -0.018   0.000   0.000  -0.027  -0.007
 -0.027   0.000   0.011  -0.006  -0.019  -0.026   0.000   0.010
 total augmentation occupancy for first ion, spin component:           1
  1.541  -0.031   0.004   0.017   0.024   0.074  -0.008  -0.002   0.035  -0.010   0.090  -0.031   0.012   0.002   0.002  -0.019
 -0.031   1.403   0.028   0.070  -0.001  -0.007   0.070   0.011  -0.014  -0.008   0.214  -0.065   0.019   0.002   0.002  -0.006
  0.004   0.028   1.545   0.002   0.002  -0.002   0.013   0.073  -0.012   0.017  -0.051   0.018  -0.003  -0.007  -0.005   0.016
  0.017   0.070   0.002   1.339   0.044   0.033  -0.013  -0.012   0.091  -0.023  -0.080   0.021  -0.001  -0.008  -0.004   0.001
  0.024  -0.001   0.002   0.044   1.442  -0.010  -0.008   0.016  -0.022   0.067  -0.095   0.031  -0.003  -0.010  -0.009   0.026
  0.074  -0.007  -0.002   0.033  -0.010   0.216   0.019  -0.002  -0.045   0.004  -0.047   0.002   0.017  -0.010   0.035  -0.004
 -0.008   0.070   0.013  -0.013  -0.008   0.019   0.262  -0.023  -0.003   0.006  -0.109   0.007  -0.001   0.051  -0.010  -0.000
 -0.002   0.011   0.073  -0.012   0.016  -0.002  -0.023   0.214   0.014  -0.019   0.028  -0.001  -0.012   0.009  -0.018   0.003
  0.035  -0.014  -0.012   0.091  -0.022  -0.045  -0.003   0.014   0.259   0.007   0.043  -0.004  -0.009   0.036   0.004   0.000
 -0.010  -0.008   0.017  -0.023   0.067   0.004   0.006  -0.019   0.007   0.257   0.046  -0.002  -0.038   0.002   0.049   0.007
  0.090   0.214  -0.051  -0.080  -0.095  -0.047  -0.109   0.028   0.043   0.046   0.950  -0.141   0.084   0.014   0.064  -0.013
 -0.031  -0.065   0.018   0.021   0.031   0.002   0.007  -0.001  -0.004  -0.002  -0.141   0.023  -0.014  -0.003  -0.010   0.003
  0.012   0.019  -0.003  -0.001  -0.003   0.017  -0.001  -0.012  -0.009  -0.038   0.084  -0.014   0.029  -0.008  -0.004  -0.003
  0.002   0.002  -0.007  -0.008  -0.010  -0.010   0.051   0.009   0.036   0.002   0.014  -0.003  -0.008   0.036   0.004   0.000
  0.002   0.002  -0.005  -0.004  -0.009   0.035  -0.010  -0.018   0.004   0.049   0.064  -0.010  -0.004   0.004   0.035  -0.000
 -0.019  -0.006   0.016   0.001   0.026  -0.004  -0.000   0.003   0.000   0.007  -0.013   0.003  -0.003   0.000  -0.000   0.001
  0.001  -0.028  -0.007  -0.018   0.001   0.001  -0.008  -0.001  -0.006  -0.000  -0.003   0.001   0.000  -0.003  -0.000   0.000
 -0.028   0.001   0.012  -0.005  -0.020  -0.006   0.001   0.003  -0.001  -0.007  -0.008   0.001  -0.000  -0.000  -0.003   0.000


------------------------ aborting loop because EDIFF is reached ----------------------------------------


    CHARGE:  cpu time   34.8395: real time   34.8389
    FORLOC:  cpu time    9.3805: real time    9.3803
    FORNL :  cpu time   87.8450: real time   87.8431
    STRESS:  cpu time  267.0350: real time  267.0356
    FORCOR:  cpu time   31.9435: real time   31.9429
    FORHAR:  cpu time   14.6285: real time   14.6282
    MIXING:  cpu time    5.4337: real time    5.4336
    OFIELD:  cpu time    0.0001: real time    0.0001

  FORCE on cell =-STRESS in cart. coord.  units (eV):
  Direction    XX          YY          ZZ          XY          YZ          ZX
  --------------------------------------------------------------------------------------
  Alpha Z    75.25432    75.25432    75.25432
  Ewald   44110.33877 48709.82743 45631.62729  -252.41463  1870.17063  -175.47663
  Hartree 59011.58804 63342.05136 60447.49151  -258.01221  1681.86992  -187.30217
  E(xc)   -2905.29719 -2903.99507 -2904.98188     0.14394     1.32550     0.27955
  Local  ************************************   512.21069 -3530.53553   366.68048
  n-local  -881.81801  -883.34547  -880.84670     1.78320     0.34771     1.59894
  augment  4104.75487  4102.23289  4103.80126    -1.53747    -4.29822    -2.10777
  Kinetic  7812.30656  7794.16408  7806.88298    -2.15262   -16.79584    -3.84386
  Fock        0.00000     0.00000     0.00000     0.00000     0.00000     0.00000
  -------------------------------------------------------------------------------------
  Total    -114.89271  -109.82575  -112.51678     0.02090     2.08416    -0.17146
  in kB      -6.81772    -6.51705    -6.67673     0.00124     0.12367    -0.01017
  external pressure =       -6.67 kB  Pullay stress =        0.00 kB


 VOLUME and BASIS-vectors are now :
 -----------------------------------------------------------------------------
  energy-cutoff  :      400.00
  volume of cell :    27000.00
      direct lattice vectors                 reciprocal lattice vectors
    30.000000000  0.000000000  0.000000000     0.033333333  0.000000000  0.000000000
     0.000000000 30.000000000  0.000000000     0.000000000  0.033333333  0.000000000
     0.000000000  0.000000000 30.000000000     0.000000000  0.000000000  0.033333333

  length of vectors
    30.000000000 30.000000000 30.000000000     0.033333333  0.033333333  0.033333333


 FORCES acting on ions
    electron-ion (+dipol)            ewald-force                    non-local-force                 convergence-correction
 -----------------------------------------------------------------------------------------------
   0.394E+03 0.973E+03 0.419E+03   -.392E+03 -.971E+03 -.418E+03   -.151E+01 -.182E+01 -.222E+00   0.358E-02 -.130E-02 0.299E-02
   -.977E+03 -.387E+03 0.423E+03   0.974E+03 0.385E+03 -.423E+03   0.179E+01 0.155E+01 -.172E+00   0.252E-02 -.530E-02 0.479E-03
   -.395E+03 0.973E+03 0.419E+03   0.393E+03 -.970E+03 -.418E+03   0.151E+01 -.182E+01 -.218E+00   0.313E-02 0.699E-03 0.484E-02
   0.977E+03 -.386E+03 0.425E+03   -.974E+03 0.383E+03 -.425E+03   -.179E+01 0.157E+01 -.154E+00   0.110E-02 -.377E-02 -.300E-02
   -.334E+00 0.589E+03 0.967E+03   0.335E+00 -.589E+03 -.963E+03   -.313E-02 -.307E+00 -.236E+01   0.339E-02 -.852E-03 0.187E-02
   -.772E+00 0.595E+03 -.964E+03   0.759E+00 -.595E+03 0.961E+03   0.174E-02 -.252E+00 0.236E+01   0.101E-01 -.324E-02 -.475E-02
   -.361E+00 0.113E+04 0.209E+01   0.356E+00 -.113E+04 -.209E+01   0.541E-03 -.310E+01 0.263E-02   0.413E-02 0.268E-02 0.295E-02
   0.114E+04 0.849E+01 0.506E+01   -.113E+04 -.851E+01 -.508E+01   -.310E+01 0.133E-01 0.154E-01   -.184E-02 -.231E-02 -.248E-02
   -.114E+04 0.650E+01 0.389E+01   0.113E+04 -.651E+01 -.392E+01   0.310E+01 0.101E-01 0.186E-01   -.312E-02 -.470E-04 0.804E-03
   -.142E+02 -.113E+04 0.861E+02   0.143E+02 0.113E+04 -.864E+02   -.275E-01 0.301E+01 0.197E+00   0.232E-02 0.332E-02 0.366E-02
   -.579E+03 0.581E+03 0.815E+03   0.577E+03 -.578E+03 -.811E+03   0.155E+01 -.155E+01 -.219E+01   0.129E-02 0.278E-02 0.371E-02
   -.581E+03 0.585E+03 -.812E+03   0.579E+03 -.583E+03 0.809E+03   0.156E+01 -.154E+01 0.220E+01   0.855E-04 -.615E-03 -.403E-02
   0.581E+03 -.573E+03 0.823E+03   -.579E+03 0.570E+03 -.819E+03   -.155E+01 0.157E+01 -.218E+01   -.181E-02 -.479E-02 -.383E-02
   0.619E+03 -.525E+03 -.824E+03   -.617E+03 0.522E+03 0.821E+03   -.146E+01 0.167E+01 0.220E+01   0.390E-02 0.267E-02 0.202E-02
   0.579E+03 0.581E+03 0.815E+03   -.576E+03 -.579E+03 -.812E+03   -.154E+01 -.156E+01 -.219E+01   0.111E-02 0.573E-03 0.119E-03
   0.580E+03 0.587E+03 -.812E+03   -.578E+03 -.584E+03 0.809E+03   -.157E+01 -.153E+01 0.220E+01   0.577E-02 -.530E-02 -.142E-02
   -.582E+03 -.573E+03 0.821E+03   0.580E+03 0.571E+03 -.818E+03   0.154E+01 0.157E+01 -.218E+01   0.707E-02 -.688E-02 -.603E-03
   -.613E+03 -.547E+03 -.819E+03   0.611E+03 0.544E+03 0.816E+03   0.150E+01 0.163E+01 0.222E+01   0.345E-02 -.534E-02 -.567E-03
   0.394E+03 0.976E+03 -.414E+03   -.392E+03 -.973E+03 0.414E+03   -.151E+01 -.184E+01 0.192E+00   0.769E-02 -.529E-03 -.158E-02
   -.985E+03 -.380E+03 -.412E+03   0.982E+03 0.378E+03 0.411E+03   0.185E+01 0.147E+01 0.216E+00   0.259E-02 -.552E-02 -.879E-03
   -.323E+03 0.328E+03 0.458E+03   0.323E+03 -.328E+03 -.459E+03   -.349E+00 0.385E+00 0.521E+00   0.574E-02 -.172E-02 0.317E-02
   0.974E+03 0.400E+03 0.421E+03   -.971E+03 -.397E+03 -.420E+03   -.181E+01 -.152E+01 -.203E+00   0.173E-02 -.105E-02 -.592E-03
   -.403E+03 -.963E+03 0.440E+03   0.400E+03 0.960E+03 -.440E+03   0.153E+01 0.183E+01 -.254E+00   0.666E-02 -.147E-02 0.858E-04
   -.395E+03 0.975E+03 -.415E+03   0.393E+03 -.972E+03 0.414E+03   0.151E+01 -.183E+01 0.191E+00   0.436E-02 0.376E-02 0.736E-03
   0.988E+03 -.373E+03 -.410E+03   -.985E+03 0.371E+03 0.410E+03   -.187E+01 0.147E+01 0.222E+00   -.488E-03 -.276E-05 -.198E-02
   -.974E+03 0.399E+03 0.420E+03   0.971E+03 -.396E+03 -.419E+03   0.181E+01 -.153E+01 -.211E+00   -.101E-02 0.311E-02 0.322E-02
   0.398E+03 -.962E+03 0.444E+03   -.396E+03 0.959E+03 -.444E+03   -.152E+01 0.185E+01 -.267E+00   -.442E-03 -.115E-02 -.717E-03
   0.322E+03 0.328E+03 0.459E+03   -.322E+03 -.329E+03 -.459E+03   0.354E+00 0.378E+00 0.518E+00   0.273E-02 -.426E-04 0.195E-02
   -.637E+00 0.645E+03 0.370E+01   0.629E+00 -.646E+03 -.374E+01   0.671E-03 0.724E+00 0.268E-01   0.657E-02 -.200E-02 0.411E-02
   -.589E+03 0.483E+01 0.969E+03   0.588E+03 -.480E+01 -.965E+03   0.287E+00 -.190E-01 -.236E+01   0.470E-02 -.523E-03 0.240E-02
   -.596E+03 0.170E+02 -.966E+03   0.595E+03 -.169E+02 0.962E+03   0.331E+00 -.334E-01 0.235E+01   0.410E-02 -.600E-02 -.375E-02
   0.588E+03 0.539E+01 0.970E+03   -.587E+03 -.538E+01 -.966E+03   -.277E+00 -.584E-02 -.236E+01   0.920E-03 -.823E-03 -.144E-02
   0.595E+03 0.216E+02 -.966E+03   -.594E+03 -.216E+02 0.963E+03   -.321E+00 -.359E-01 0.236E+01   0.426E-02 -.146E-02 0.332E-03
   0.762E+03 0.766E+03 0.336E+01   -.760E+03 -.764E+03 -.336E+01   -.114E+01 -.115E+01 -.206E-02   0.405E-02 -.239E-02 0.248E-03
   -.779E+03 -.744E+03 0.186E+02   0.777E+03 0.742E+03 -.185E+02   0.122E+01 0.113E+01 -.708E-01   0.767E-02 -.708E-02 0.143E-02
   -.763E+03 0.766E+03 0.301E+01   0.761E+03 -.764E+03 -.301E+01   0.114E+01 -.115E+01 -.708E-02   0.317E-03 -.325E-03 0.385E-02
   0.779E+03 -.737E+03 0.267E+02   -.777E+03 0.735E+03 -.265E+02   -.137E+01 0.106E+01 -.237E+00   0.104E-02 -.319E-02 0.637E-03
   -.591E+00 0.576E+01 0.107E+04   0.587E+00 -.576E+01 -.107E+04   0.272E-03 0.109E-02 -.161E+01   0.305E-02 -.279E-02 0.748E-03
   -.263E+01 0.273E+02 -.107E+04   0.263E+01 -.272E+02 0.107E+04   0.570E-03 -.821E-01 0.163E+01   0.805E-02 -.353E-02 -.254E-02
   0.976E+03 0.405E+03 -.414E+03   -.973E+03 -.402E+03 0.413E+03   -.182E+01 -.149E+01 0.228E+00   0.143E-02 -.441E-02 -.434E-02
   -.497E+03 -.897E+03 -.353E+03   0.495E+03 0.895E+03 0.353E+03   0.122E+01 0.136E+01 -.951E-02   0.225E-02 -.214E-02 0.268E-02
   -.325E+03 0.335E+03 -.450E+03   0.325E+03 -.335E+03 0.450E+03   -.376E+00 0.394E+00 -.517E+00   0.668E-02 -.705E-02 0.865E-03
   0.323E+03 -.308E+03 0.467E+03   -.323E+03 0.309E+03 -.468E+03   0.357E+00 -.386E+00 0.508E+00   0.133E-02 -.808E-02 -.249E-03
   0.323E+03 0.336E+03 -.449E+03   -.323E+03 -.337E+03 0.450E+03   0.376E+00 0.401E+00 -.520E+00   0.886E-02 -.420E-02 -.434E-02
   -.977E+03 0.402E+03 -.414E+03   0.974E+03 -.400E+03 0.413E+03   0.182E+01 -.149E+01 0.231E+00   -.377E-02 -.455E-03 -.235E-04
   0.511E+03 -.795E+03 -.261E+03   -.506E+03 0.797E+03 0.265E+03   -.392E+01 -.290E+01 -.368E+01   0.289E-02 -.279E-03 0.339E-02
   -.326E+03 -.310E+03 0.466E+03   0.326E+03 0.310E+03 -.466E+03   -.369E+00 -.373E+00 0.534E+00   0.703E-02 -.821E-02 0.229E-03
   0.644E+03 0.150E+02 0.884E+01   -.645E+03 -.150E+02 -.882E+01   0.723E+00 -.393E-02 -.872E-02   0.578E-02 -.442E-02 -.196E-02
   -.645E+03 0.123E+02 0.727E+01   0.646E+03 -.123E+02 -.728E+01   -.736E+00 0.104E-01 0.463E-02   0.605E-02 -.490E-02 0.164E-02
   -.106E+01 -.580E+03 0.976E+03   0.105E+01 0.579E+03 -.973E+03   0.387E-02 0.311E+00 -.235E+01   0.237E-02 -.513E-02 -.422E-02
   -.215E+02 -.477E+03 -.994E+03   0.216E+02 0.476E+03 0.991E+03   -.972E-01 0.449E+00 0.195E+01   0.322E-02 -.102E-02 0.210E-02
   -.177E+01 0.181E+02 0.106E+02   0.176E+01 -.181E+02 -.106E+02   0.749E-02 -.362E-01 -.134E-01   0.347E-02 -.494E-02 0.173E-02
   0.330E+03 -.276E+03 -.440E+03   -.331E+03 0.276E+03 0.440E+03   0.448E+00 -.412E+00 -.468E+00   0.714E-02 -.336E-02 -.183E-02
   -.337E+03 -.285E+03 -.442E+03   0.338E+03 0.285E+03 0.443E+03   -.400E+00 -.365E+00 -.513E+00   0.552E-02 -.648E-02 0.719E-03
   -.653E+01 -.604E+03 0.390E+02   0.648E+01 0.605E+03 -.391E+02   0.552E-01 -.640E+00 0.110E+00   0.308E-02 -.684E-02 0.342E-02
   -.116E+02 -.248E+03 -.164E+03   0.129E+02 0.229E+03 0.153E+03   -.143E+01 0.137E+02 0.773E+01   0.625E-03 0.165E-03 0.153E-02
   0.636E+02 -.700E+03 -.415E+03   -.691E+02 0.757E+03 0.447E+03   0.559E+01 -.523E+02 -.296E+02   0.668E-03 0.213E-03 0.129E-02
 -----------------------------------------------------------------------------------------------
   -.153E+01 0.437E+02 0.262E+02   0.711E-12 0.227E-12 -.284E-12   0.135E+01 -.435E+02 -.262E+02   0.185E+00 -.133E+00 0.149E-01
 
 
 POSITION                                       TOTAL-FORCE (eV/Angst)
 -----------------------------------------------------------------------------------
     13.37281      9.84801     12.50759         0.710381      1.109220      0.288738
     20.15199     16.62719     12.50759        -1.107367     -0.731215      0.271389
     16.62719      9.84801     12.50759        -0.710773      1.108964      0.287303
      9.84801     16.62719     12.50759         1.102520     -0.750047      0.255971
     15.00000     11.47521     10.20639         0.000547      0.408363      1.285344
     15.00000     11.47521     19.79360        -0.001129      0.391618     -1.294657
     15.00000      8.28283     15.00000        -0.000252      1.520253      0.004313
      8.28283     15.00000     15.00000         1.520626     -0.005780     -0.008074
     21.71717     15.00000     15.00000        -1.522642     -0.002702     -0.010499
     15.00000     21.71717     15.00000         0.007099     -1.494241     -0.064762
     18.35858     11.64142     10.25025        -0.754362      0.763978      1.075712
     18.35858     11.64142     19.74975        -0.766157      0.750824     -1.078592
     11.64142     18.35858     10.25025         0.755685     -0.766181      1.070695
     11.64142     18.35858     19.74975         0.715290     -0.808059     -1.065685
     11.64142     11.64142     10.25025         0.752279      0.765986      1.076041
     11.64142     11.64142     19.74975         0.767680      0.747342     -1.079939
     18.35858     18.35858     10.25025        -0.751128     -0.771676      1.071980
     18.35858     18.35858     19.74975        -0.749158     -0.788000     -1.090674
     13.37281      9.84801     17.49241         0.705385      1.119148     -0.277437
     20.15199     16.62719     17.49241        -1.112216     -0.696128     -0.283701
     16.73751     13.26249     12.54279         0.109934     -0.112855     -0.157139
      9.84801     13.37281     12.50759         1.109474      0.719030      0.285780
     16.62719     20.15199     12.50759        -0.714025     -1.102302      0.282492
     16.62719      9.84801     17.49241        -0.707349      1.119857     -0.278814
      9.84801     16.62719     17.49241         1.111012     -0.699137     -0.283465
     20.15199     13.37281     12.50759        -1.107488      0.720200      0.291580
     13.37281     20.15199     12.50759         0.710240     -1.103675      0.282598
     13.26249     13.26249     12.54279        -0.113221     -0.109008     -0.156061
     15.00000     11.52498     15.00000        -0.000438     -0.227147     -0.005737
     18.52479     15.00000     10.20639        -0.405954      0.010560      1.291410
     18.52479     15.00000     19.79360        -0.412295      0.012746     -1.278775
     11.47521     15.00000     10.20640         0.402738      0.002865      1.293706
     11.47521     15.00000     19.79360         0.405646      0.012123     -1.281587
     11.49535     11.49535     15.00000         0.824715      0.827025     -0.001566
     18.50465     18.50465     15.00000        -0.825364     -0.830197      0.018875
     18.50465     11.49535     15.00000        -0.825378      0.827049     -0.000643
     11.49535     18.50465     15.00000         0.856184     -0.824388      0.044100
     15.00000     15.00000     10.04368        -0.000776     -0.000184      1.173441
     15.00000     15.00000     19.95633         0.008425      0.021227     -1.174870
      9.84801     13.37281     17.49241         1.108988      0.708275     -0.292526
     16.62719     20.15199     17.49241        -1.017065     -0.798486     -0.034153
     16.73751     13.26249     17.45721         0.109717     -0.122103      0.159113
     13.26249     16.73751     12.54279        -0.113303      0.118372     -0.154411
     13.26249     13.26249     17.45721        -0.109036     -0.136082      0.161636
     20.15199     13.37281     17.49241        -1.109410      0.703223     -0.293891
     13.37281     20.15199     17.49241         1.052483     -0.771837      0.048704
     16.73751     16.73751     12.54279         0.123984      0.104393     -0.166455
     11.52498     15.00000     15.00000        -0.231841      0.008564      0.004703
     18.47502     15.00000     15.00000         0.232262      0.002911     -0.001938
     15.00000     18.52480     10.20639        -0.001617     -0.408687      1.288192
     15.00000     18.52480     19.79360         0.008391     -0.370440     -1.211032
     15.00000     15.00000     15.00000         0.002958      0.015086      0.012518
     13.26249     16.73751     17.45721        -0.136294      0.057012      0.119076
     16.73751     16.73751     17.45721         0.126338      0.079711      0.146236
     15.00000     18.47502     15.00000         0.000198      0.159005     -0.073762
     14.40131     21.33353     18.62869        -0.076506     -4.905408     -3.288800
     14.30910     22.30900     19.18757         0.041366      4.421032      2.798001
 -----------------------------------------------------------------------------------
    total drift:                                0.006886     -0.006900      0.014395


--------------------------------------------------------------------------------------------------------



  FREE ENERGIE OF THE ION-ELECTRON SYSTEM (eV)
  ---------------------------------------------------
  free  energy   TOTEN  =      -175.04287450 eV

  energy  without entropy=     -174.91762636  energy(sigma->0) =     -175.01156246
 


--------------------------------------------------------------------------------------------------------


    POTLOK:  cpu time   19.5201: real time   19.5204


--------------------------------------------------------------------------------------------------------


     LOOP+:  cpu time24727.1962: real time24728.2378
    4ORBIT:  cpu time    0.0000: real time    0.0000

 total amount of memory used by VASP MPI-rank0  5486942. kBytes
=======================================================================

   base      :      30000. kBytes
   nonlr-proj:      17127. kBytes
   fftplans  :     924480. kBytes
   grid      :    1872000. kBytes
   one-center:        886. kBytes
   wavefun   :    2642449. kBytes
 
  
  
 General timing and accounting informations for this job:
 ========================================================
  
                  Total CPU time used (sec):    24835.791
                            User time (sec):    22834.652
                          System time (sec):     2001.139
                         Elapsed time (sec):    24837.079
  
                   Maximum memory used (kb):     7178152.
                   Average memory used (kb):           0.
  
                          Minor page faults:    829528309
                          Major page faults:            0
                 Voluntary context switches:          682
