 running on    1 total cores
 distrk:  each k-point on    1 cores,    1 groups
 distr:  one band on    1 cores,    1 groups
 using from now: INCAR     
 vasp.5.4.4.18Apr17-6-g9f103f2a35 (build Sep 03 2018 23:53:05) complex          
  
 POSCAR found type information on POSCAR  Pd C  O 
 POSCAR found :  3 types and      57 ions
 scaLAPACK will be used

 ----------------------------------------------------------------------------- 
|                                                                             |
|  ADVICE TO THIS USER RUNNING 'VASP/VAMP'   (HEAR YOUR MASTER'S VOICE ...):  |
|                                                                             |
|      You enforced a specific xc-type in the INCAR file,                     |
|      a different type was found on the POTCAR file                          |
|          I HOPE YOU KNOW, WHAT YOU ARE  DOING                               |
|                                                                             |
 ----------------------------------------------------------------------------- 

 LDA part: xc-table for Pade appr. of Perdew
 POSCAR, INCAR and KPOINTS ok, starting setup
 FFT: planning ...
 WAVECAR not read
 entering main loop
       N       E                     dE             d eps       ncg     rms          rms(c)
DAV:   1     0.439144319436E+04    0.43914E+04   -0.10051E+05   688   0.815E+02
DAV:   2     0.201375553474E+04   -0.23777E+04   -0.21403E+04  1224   0.105E+02
DAV:   3     0.234027129935E+03   -0.17797E+04   -0.16714E+04   992   0.919E+01
DAV:   4    -0.135356498836E+03   -0.36938E+03   -0.31314E+03   824   0.437E+01
DAV:   5    -0.180191928631E+03   -0.44835E+02   -0.36801E+02  1048   0.144E+01    0.156E+01
RMM:   6    -0.180441515397E+03   -0.24959E+00   -0.61157E+01   725   0.917E+00    0.242E+01
RMM:   7    -0.182468010515E+03   -0.20265E+01   -0.20326E+01   850   0.456E+00    0.262E+01
RMM:   8    -0.184539826791E+03   -0.20718E+01   -0.72126E+00   819   0.329E+00    0.255E+01
RMM:   9    -0.183582471215E+03    0.95736E+00   -0.56660E+00   734   0.328E+00    0.251E+01
RMM:  10    -0.180638782855E+03    0.29437E+01   -0.40703E+00   729   0.293E+00    0.226E+01
RMM:  11    -0.178737727082E+03    0.19011E+01   -0.23447E+00   723   0.224E+00    0.181E+01
RMM:  12    -0.178062562171E+03    0.67516E+00   -0.20242E+00   723   0.207E+00    0.183E+01
RMM:  13    -0.177789553230E+03    0.27301E+00   -0.12255E+00   725   0.160E+00    0.174E+01
RMM:  14    -0.177144450454E+03    0.64510E+00   -0.15855E+00   714   0.185E+00    0.172E+01
RMM:  15    -0.176825580638E+03    0.31887E+00   -0.14561E+00   704   0.180E+00    0.170E+01
RMM:  16    -0.176950104073E+03   -0.12452E+00   -0.92293E-01   716   0.142E+00    0.196E+01
RMM:  17    -0.175907664732E+03    0.10424E+01   -0.44175E-01   721   0.100E+00    0.103E+01
RMM:  18    -0.176001548273E+03   -0.93884E-01   -0.54904E-01   700   0.111E+00    0.139E+01
RMM:  19    -0.175757782110E+03    0.24377E+00   -0.34197E-01   706   0.891E-01    0.913E+00
RMM:  20    -0.175705300601E+03    0.52482E-01   -0.36535E-01   698   0.918E-01    0.960E+00
RMM:  21    -0.175605390892E+03    0.99910E-01   -0.27767E-01   699   0.803E-01    0.987E+00
RMM:  22    -0.175523447125E+03    0.81944E-01   -0.27730E-01   699   0.783E-01    0.888E+00
RMM:  23    -0.175434072890E+03    0.89374E-01   -0.26147E-01   701   0.775E-01    0.766E+00
RMM:  24    -0.175276256712E+03    0.15782E+00   -0.15793E-01   697   0.626E-01    0.569E+00
RMM:  25    -0.175198933112E+03    0.77324E-01   -0.11194E-01   696   0.506E-01    0.501E+00
RMM:  26    -0.175100731963E+03    0.98201E-01   -0.72373E-02   697   0.420E-01    0.333E+00
RMM:  27    -0.175111486967E+03   -0.10755E-01   -0.49950E-02   701   0.352E-01    0.385E+00
RMM:  28    -0.175066843393E+03    0.44644E-01   -0.45377E-02   694   0.337E-01    0.264E+00
RMM:  29    -0.175038503552E+03    0.28340E-01   -0.23637E-02   694   0.260E-01    0.170E+00
RMM:  30    -0.175034572521E+03    0.39310E-02   -0.13422E-02   693   0.187E-01    0.163E+00
RMM:  31    -0.175022796566E+03    0.11776E-01   -0.87574E-03   696   0.149E-01    0.112E+00
RMM:  32    -0.175020207658E+03    0.25889E-02   -0.58326E-03   694   0.123E-01    0.103E+00
RMM:  33    -0.175017670573E+03    0.25371E-02   -0.44054E-03   694   0.105E-01    0.983E-01
RMM:  34    -0.175015263075E+03    0.24075E-02   -0.34920E-03   691   0.961E-02    0.740E-01
RMM:  35    -0.175017812355E+03   -0.25493E-02   -0.36801E-03   692   0.986E-02    0.981E-01
RMM:  36    -0.175015198035E+03    0.26143E-02   -0.25045E-03   690   0.843E-02    0.598E-01
RMM:  37    -0.175016042857E+03   -0.84482E-03   -0.15292E-03   688   0.652E-02    0.463E-01
RMM:  38    -0.175017151983E+03   -0.11091E-02   -0.10918E-03   690   0.555E-02    0.273E-01
RMM:  39    -0.175018537470E+03   -0.13855E-02   -0.69753E-04   674   0.423E-02    0.273E-01
RMM:  40    -0.175021704802E+03   -0.31673E-02   -0.69063E-04   655   0.405E-02    0.278E-01
RMM:  41    -0.175023610187E+03   -0.19054E-02   -0.45929E-04   539   0.335E-02    0.228E-01
RMM:  42    -0.175026440854E+03   -0.28307E-02   -0.51912E-04   555   0.329E-02    0.229E-01
RMM:  43    -0.175029533630E+03   -0.30928E-02   -0.56034E-04   561   0.331E-02    0.182E-01
RMM:  44    -0.175030773689E+03   -0.12401E-02   -0.22787E-04   423   0.224E-02    0.146E-01
RMM:  45    -0.175033426088E+03   -0.26524E-02   -0.37139E-04   468   0.238E-02    0.112E-01
RMM:  46    -0.175034651154E+03   -0.12251E-02   -0.19199E-04   414   0.182E-02    0.110E-01
RMM:  47    -0.175036778674E+03   -0.21275E-02   -0.27069E-04   437   0.190E-02    0.994E-02
RMM:  48    -0.175037657091E+03   -0.87842E-03   -0.14395E-04   415   0.149E-02    0.634E-02
RMM:  49    -0.175038449973E+03   -0.79288E-03   -0.83936E-05   411   0.109E-02    0.579E-02
RMM:  50    -0.175039344695E+03   -0.89472E-03   -0.65130E-05   409   0.928E-03    0.349E-02
RMM:  51    -0.175039656497E+03   -0.31180E-03   -0.33440E-05   396   0.688E-03    0.350E-02
RMM:  52    -0.175040494302E+03   -0.83780E-03   -0.32584E-05   399   0.673E-03    0.252E-02
RMM:  53    -0.175040780224E+03   -0.28592E-03   -0.12204E-05   244   0.461E-03    0.168E-02
RMM:  54    -0.175041393244E+03   -0.61302E-03   -0.17311E-05   327   0.515E-03    0.254E-02
RMM:  55    -0.175041784257E+03   -0.39101E-03   -0.91718E-06   222   0.443E-03    0.133E-02
RMM:  56    -0.175041988582E+03   -0.20433E-03   -0.70543E-06   204   0.416E-03    0.117E-02
RMM:  57    -0.175042352815E+03   -0.36423E-03   -0.14491E-05   246   0.448E-03    0.116E-02
RMM:  58    -0.175042497037E+03   -0.14422E-03   -0.47608E-06   150   0.366E-03    0.785E-03
RMM:  59    -0.175042641486E+03   -0.14445E-03   -0.79623E-06   171   0.386E-03    0.917E-03
RMM:  60    -0.175042805366E+03   -0.16388E-03   -0.98581E-06   184   0.408E-03    0.557E-03
RMM:  61    -0.175042874496E+03   -0.69129E-04   -0.49670E-06   135   0.358E-03
   1 F= -.17504287E+03 E0= -.17501156E+03  d E =-.125248E+00
================================= SLURM INFO ===================================
Command: run-cluster -n 1 -m 10000 -j 000078_vasp --same-node /opt/VASP/vasp
Exit code: 0
Job name: 000078_vasp
Job time: 0 days 6h:53m:58s
MPI task count: 1
Working dir: /home/pashkov/pyFitIt/pyfitit/data/adaptive_pd_co_new_2/sample/000078
Job was running on nodes: b6
Task per node: 1
       JobID     MaxRSS  MaxDiskRead MaxDiskWrite    Elapsed    JobName 
------------ ---------- ------------ ------------ ---------- ---------- 
106549                                              06:53:58 000078_va+ 
106549.batch                                        06:53:58      batch 
