<?xml version="1.0" encoding="ISO-8859-1"?>
<modeling>
 <generator>
  <i name="program" type="string">vasp </i>
  <i name="version" type="string">5.4.4.18Apr17-6-g9f103f2a35  </i>
  <i name="subversion" type="string">(build Sep 03 2018 23:53:05) complex            parallel </i>
  <i name="platform" type="string">LinuxIFC </i>
  <i name="date" type="string">2021 11 30 </i>
  <i name="time" type="string">21:49:09 </i>
 </generator>
 <incar>
  <i type="string" name="SYSTEM"> 6_Pd100_top_free_z(O)</i>
  <i type="int" name="ISTART">     0</i>
  <i type="string" name="PREC">normal   			! encut=max(enmax), ngx,y,z</i>
  <i type="string" name="ALGO"> Fast     			! Mix RMM-DIIS and Dav</i>
  <i type="logical" name="ADDGRID"> F  </i>
  <i type="int" name="ISPIN">     1</i>
  <i type="int" name="ICHARG">     2</i>
  <i type="int" name="NELM">   100</i>
  <i type="int" name="NELMIN">     6</i>
  <i type="int" name="IBRION">     2</i>
  <i name="EDIFF">      0.00010000</i>
  <i name="EDIFFG">     -0.05000000</i>
  <i type="int" name="NSW">     0</i>
  <i type="int" name="ISIF">     2</i>
  <i type="int" name="ISYM">     2</i>
  <i name="ENCUT">    400.00000000</i>
  <i type="string" name="LREAL"> Auto     			! Auto or A projection done</i>
  <i type="int" name="ISMEAR">     2</i>
  <i name="SIGMA">      0.20000000</i>
  <i type="logical" name="LWAVE"> F  </i>
  <i type="logical" name="LCHARG"> F  </i>
  <v type="int" name="KPOINT_BSE">    -1     0     0     0</v>
  <i type="int" name="MAXMEM"> 10000</i>
  <i type="int" name="NELM">   100</i>
  <i type="string" name="GGA"> RP         			! Revised PBE</i>
 </incar>
 <structure name="primitive_cell" >
  <crystal>
   <varray name="basis" >
    <v>      30.00000000       0.00000000       0.00000000 </v>
    <v>       0.00000000      30.00000000       0.00000000 </v>
    <v>       0.00000000       0.00000000      30.00000000 </v>
   </varray>
   <i name="volume">  27000.00000000 </i>
   <varray name="rec_basis" >
    <v>       0.03333333       0.00000000       0.00000000 </v>
    <v>       0.00000000       0.03333333       0.00000000 </v>
    <v>       0.00000000       0.00000000       0.03333333 </v>
   </varray>
  </crystal>
  <varray name="positions" >
   <v>       0.44576020       0.32826710       0.41691983 </v>
   <v>      -0.44576020       0.32826710       0.41691983 </v>
   <v>      -0.50000000       0.38250690       0.34021317 </v>
   <v>      -0.50000000       0.27609440      -0.50000000 </v>
   <v>       0.38804720       0.38804720       0.34167483 </v>
   <v>      -0.50000000       0.38416601      -0.50000000 </v>
   <v>       0.44208300       0.44208300       0.41809300 </v>
   <v>       0.38317830       0.38317830      -0.50000000 </v>
   <v>      -0.44208300       0.44208300       0.41809300 </v>
   <v>       0.44576020       0.32826710      -0.41691977 </v>
   <v>       0.32826705       0.44576024       0.41691983 </v>
   <v>      -0.38804720       0.38804720       0.34167483 </v>
   <v>      -0.38317830       0.38317830      -0.50000000 </v>
   <v>      -0.50000000      -0.50000000       0.33478917 </v>
   <v>      -0.50000000      -0.50000000      -0.50000000 </v>
   <v>      -0.44576020       0.32826710      -0.41691977 </v>
   <v>       0.38250685      -0.49999995       0.34021317 </v>
   <v>       0.44208300       0.44208300      -0.41809297 </v>
   <v>       0.38416599      -0.49999998      -0.50000000 </v>
   <v>      -0.44208300       0.44208300      -0.41809297 </v>
   <v>       0.44208298      -0.44208298       0.41809300 </v>
   <v>       0.32826705       0.44576024      -0.41691977 </v>
   <v>      -0.50000000       0.38250690      -0.34021320 </v>
   <v>       0.32826712      -0.44576022       0.41691983 </v>
   <v>      -0.38250685      -0.49999995       0.34021317 </v>
   <v>      -0.32826705       0.44576024       0.41691983 </v>
   <v>       0.27609443       0.49999998      -0.50000000 </v>
   <v>       0.38804720       0.38804720      -0.34167487 </v>
   <v>      -0.38416599      -0.49999998      -0.50000000 </v>
   <v>      -0.44208298      -0.44208298       0.41809300 </v>
   <v>       0.44208298      -0.44208298      -0.41809297 </v>
   <v>      -0.38804720       0.38804720      -0.34167487 </v>
   <v>       0.38804722      -0.38804722       0.34167483 </v>
   <v>       0.38250685      -0.49999995      -0.34021320 </v>
   <v>       0.32826712      -0.44576022      -0.41691977 </v>
   <v>      -0.32826705       0.44576024      -0.41691977 </v>
   <v>       0.50000000      -0.38250681       0.34021317 </v>
   <v>      -0.50000000      -0.38416596      -0.50000000 </v>
   <v>      -0.44208298      -0.44208298      -0.41809297 </v>
   <v>      -0.50000000      -0.50000000      -0.33478913 </v>
   <v>       0.38317828      -0.38317828      -0.50000000 </v>
   <v>      -0.32826712      -0.44576022       0.41691983 </v>
   <v>      -0.27609443       0.49999998      -0.50000000 </v>
   <v>      -0.38804722      -0.38804722       0.34167483 </v>
   <v>      -0.38250685      -0.49999995      -0.34021320 </v>
   <v>       0.44576027      -0.32826707       0.41691983 </v>
   <v>      -0.38317828      -0.38317828      -0.50000000 </v>
   <v>      -0.32826712      -0.44576022      -0.41691977 </v>
   <v>      -0.44576027      -0.32826707       0.41691983 </v>
   <v>       0.38804722      -0.38804722      -0.34167487 </v>
   <v>      -0.50000000      -0.38250681      -0.34021320 </v>
   <v>       0.44576027      -0.32826707      -0.41691977 </v>
   <v>      -0.44576027      -0.32826707      -0.41691977 </v>
   <v>      -0.50000000      -0.27609445       0.50000000 </v>
   <v>      -0.38804722      -0.38804722      -0.34167487 </v>
   <v>       0.48004350      -0.28888220      -0.37904373 </v>
   <v>       0.47696987      -0.25636660      -0.36041447 </v>
  </varray>
 </structure>
 <varray name="primitive_index" >
  <v type="int" >        1 </v>
  <v type="int" >        3 </v>
  <v type="int" >        5 </v>
  <v type="int" >        7 </v>
  <v type="int" >       15 </v>
  <v type="int" >       29 </v>
  <v type="int" >       28 </v>
  <v type="int" >       34 </v>
  <v type="int" >       21 </v>
  <v type="int" >       19 </v>
  <v type="int" >       22 </v>
  <v type="int" >       11 </v>
  <v type="int" >       36 </v>
  <v type="int" >       38 </v>
  <v type="int" >       52 </v>
  <v type="int" >       24 </v>
  <v type="int" >       32 </v>
  <v type="int" >       44 </v>
  <v type="int" >       48 </v>
  <v type="int" >       42 </v>
  <v type="int" >       43 </v>
  <v type="int" >       40 </v>
  <v type="int" >        6 </v>
  <v type="int" >        4 </v>
  <v type="int" >       30 </v>
  <v type="int" >       26 </v>
  <v type="int" >        8 </v>
  <v type="int" >       16 </v>
  <v type="int" >       49 </v>
  <v type="int" >       47 </v>
  <v type="int" >       53 </v>
  <v type="int" >       12 </v>
  <v type="int" >       13 </v>
  <v type="int" >       33 </v>
  <v type="int" >       25 </v>
  <v type="int" >       45 </v>
  <v type="int" >       50 </v>
  <v type="int" >       55 </v>
  <v type="int" >       54 </v>
  <v type="int" >       39 </v>
  <v type="int" >       37 </v>
  <v type="int" >        2 </v>
  <v type="int" >        9 </v>
  <v type="int" >       17 </v>
  <v type="int" >       31 </v>
  <v type="int" >       27 </v>
  <v type="int" >       35 </v>
  <v type="int" >       20 </v>
  <v type="int" >       23 </v>
  <v type="int" >       14 </v>
  <v type="int" >       51 </v>
  <v type="int" >       46 </v>
  <v type="int" >       41 </v>
  <v type="int" >       10 </v>
  <v type="int" >       18 </v>
  <v type="int" >       56 </v>
  <v type="int" >       57 </v>
 </varray>
 <kpoints>
  <generation param="Monkhorst-Pack">
   <v type="int" name="divisions">       1        1        1 </v>
   <v name="usershift">      0.00000000       0.00000000       0.00000000 </v>
   <v name="genvec1">      1.00000000       0.00000000       0.00000000 </v>
   <v name="genvec2">      0.00000000       1.00000000       0.00000000 </v>
   <v name="genvec3">      0.00000000       0.00000000       1.00000000 </v>
   <v name="shift">      0.00000000       0.00000000       0.00000000 </v>
  </generation>
  <varray name="kpointlist" >
   <v>       0.00000000       0.00000000       0.00000000 </v>
  </varray>
  <varray name="weights" >
   <v>       1.00000000 </v>
  </varray>
 </kpoints>
 <parameters>
  <separator name="general" >
   <i type="string" name="SYSTEM">6_Pd100_top_free_z(O)</i>
   <i type="logical" name="LCOMPAT"> F  </i>
  </separator>
  <separator name="electronic" >
   <i type="string" name="PREC">normal</i>
   <i name="ENMAX">    400.00000000</i>
   <i name="ENAUG">    644.87300000</i>
   <i name="EDIFF">      0.00010000</i>
   <i type="int" name="IALGO">    68</i>
   <i type="int" name="IWAVPR">    10</i>
   <i type="int" name="NBANDS">   336</i>
   <i name="NELECT">    560.00000000</i>
   <i type="int" name="TURBO">     0</i>
   <i type="int" name="IRESTART">     0</i>
   <i type="int" name="NREBOOT">     0</i>
   <i type="int" name="NMIN">     0</i>
   <i name="EREF">      0.00000000</i>
   <separator name="electronic smearing" >
    <i type="int" name="ISMEAR">     2</i>
    <i name="SIGMA">      0.20000000</i>
    <i name="KSPACING">      0.50000000</i>
    <i type="logical" name="KGAMMA"> T  </i>
   </separator>
   <separator name="electronic projectors" >
    <i type="logical" name="LREAL"> T  </i>
    <v name="ROPT">     -0.00050000     -0.00050000     -0.00050000</v>
    <i type="int" name="LMAXPAW">  -100</i>
    <i type="int" name="LMAXMIX">     2</i>
    <i type="logical" name="NLSPLINE"> F  </i>
   </separator>
   <separator name="electronic startup" >
    <i type="int" name="ISTART">     0</i>
    <i type="int" name="ICHARG">     2</i>
    <i type="int" name="INIWAV">     1</i>
   </separator>
   <separator name="electronic spin" >
    <i type="int" name="ISPIN">     1</i>
    <i type="logical" name="LNONCOLLINEAR"> F  </i>
    <v name="MAGMOM">      1.00000000      1.00000000      1.00000000      1.00000000      1.00000000      1.00000000      1.00000000      1.00000000      1.00000000      1.00000000      1.00000000      1.00000000      1.00000000      1.00000000      1.00000000      1.00000000      1.00000000      1.00000000      1.00000000      1.00000000
      1.00000000      1.00000000      1.00000000      1.00000000      1.00000000      1.00000000      1.00000000      1.00000000      1.00000000      1.00000000      1.00000000      1.00000000      1.00000000      1.00000000      1.00000000      1.00000000      1.00000000      1.00000000      1.00000000      1.00000000
      1.00000000      1.00000000      1.00000000      1.00000000      1.00000000      1.00000000      1.00000000      1.00000000      1.00000000      1.00000000      1.00000000      1.00000000      1.00000000      1.00000000      1.00000000      1.00000000      1.00000000</v>
    <i name="NUPDOWN">     -1.00000000</i>
    <i type="logical" name="LSORBIT"> F  </i>
    <v name="SAXIS">      0.00000000      0.00000000      1.00000000</v>
    <i type="logical" name="LSPIRAL"> F  </i>
    <v name="QSPIRAL">      0.00000000      0.00000000      0.00000000</v>
    <i type="logical" name="LZEROZ"> F  </i>
   </separator>
   <separator name="electronic exchange-correlation" >
    <i type="logical" name="LASPH"> F  </i>
    <i type="logical" name="LMETAGGA"> F  </i>
   </separator>
   <separator name="electronic convergence" >
    <i type="int" name="NELM">   100</i>
    <i type="int" name="NELMDL">    -5</i>
    <i type="int" name="NELMIN">     6</i>
    <i name="ENINI">    400.00000000</i>
    <separator name="electronic convergence detail" >
     <i type="logical" name="LDIAG"> T  </i>
     <i type="logical" name="LSUBROT"> F  </i>
     <i name="WEIMIN">      0.00000000</i>
     <i name="EBREAK">      0.00000007</i>
     <i name="DEPER">      0.30000000</i>
     <i type="int" name="NRMM">     4</i>
     <i name="TIME">      0.40000000</i>
    </separator>
   </separator>
   <separator name="electronic mixer" >
    <i name="AMIX">      0.40000000</i>
    <i name="BMIX">      1.00000000</i>
    <i name="AMIN">      0.10000000</i>
    <i name="AMIX_MAG">      1.60000000</i>
    <i name="BMIX_MAG">      1.00000000</i>
    <separator name="electronic mixer details" >
     <i type="int" name="IMIX">     4</i>
     <i type="logical" name="MIXFIRST"> F  </i>
     <i type="int" name="MAXMIX">   -45</i>
     <i name="WC">    100.00000000</i>
     <i type="int" name="INIMIX">     1</i>
     <i type="int" name="MIXPRE">     1</i>
     <i type="int" name="MREMOVE">     5</i>
    </separator>
   </separator>
   <separator name="electronic dipolcorrection" >
    <i type="logical" name="LDIPOL"> F  </i>
    <i type="logical" name="LMONO"> F  </i>
    <i type="int" name="IDIPOL">     0</i>
    <i name="EPSILON">      1.00000000</i>
    <v name="DIPOL">   -100.00000000   -100.00000000   -100.00000000</v>
    <i name="EFIELD">      0.00000000</i>
   </separator>
  </separator>
  <separator name="grids" >
   <i type="int" name="NGX">   150</i>
   <i type="int" name="NGY">   150</i>
   <i type="int" name="NGZ">   150</i>
   <i type="int" name="NGXF">   300</i>
   <i type="int" name="NGYF">   300</i>
   <i type="int" name="NGZF">   300</i>
   <i type="logical" name="ADDGRID"> F  </i>
  </separator>
  <separator name="ionic" >
   <i type="int" name="NSW">     0</i>
   <i type="int" name="IBRION">    -1</i>
   <i type="int" name="MDALGO">     0</i>
   <i type="int" name="ISIF">     2</i>
   <i name="PSTRESS">      0.00000000</i>
   <i name="EDIFFG">     -0.05000000</i>
   <i type="int" name="NFREE">     1</i>
   <i name="POTIM">      0.50000000</i>
   <i name="SMASS">     -3.00000000</i>
   <i name="SCALEE">      1.00000000</i>
  </separator>
  <separator name="ionic md" >
   <i name="TEBEG">      0.00010000</i>
   <i name="TEEND">      0.00010000</i>
   <i type="int" name="NBLOCK">     1</i>
   <i type="int" name="KBLOCK">     1</i>
   <i type="int" name="NPACO">   256</i>
   <i name="APACO">     16.00000000</i>
  </separator>
  <separator name="symmetry" >
   <i type="int" name="ISYM">     2</i>
   <i name="SYMPREC">      0.00001000</i>
  </separator>
  <separator name="dos" >
   <i type="int" name="LORBIT">     0</i>
   <v name="RWIGS">     -1.00000000     -1.00000000     -1.00000000</v>
   <i type="int" name="NEDOS">   301</i>
   <i name="EMIN">     10.00000000</i>
   <i name="EMAX">    -10.00000000</i>
   <i name="EFERMI">      0.00000000</i>
  </separator>
  <separator name="writing" >
   <i type="int" name="NWRITE">     2</i>
   <i type="logical" name="LWAVE"> F  </i>
   <i type="logical" name="LDOWNSAMPLE"> F  </i>
   <i type="logical" name="LCHARG"> F  </i>
   <i type="logical" name="LPARD"> F  </i>
   <i type="logical" name="LVTOT"> F  </i>
   <i type="logical" name="LVHAR"> F  </i>
   <i type="logical" name="LELF"> F  </i>
   <i type="logical" name="LOPTICS"> F  </i>
   <v name="STM">      0.00000000      0.00000000      0.00000000      0.00000000      0.00000000      0.00000000      0.00000000</v>
  </separator>
  <separator name="performance" >
   <i type="int" name="NPAR">     1</i>
   <i type="int" name="NSIM">     4</i>
   <i type="int" name="NBLK">    -1</i>
   <i type="logical" name="LPLANE"> T  </i>
   <i type="logical" name="LSCALAPACK"> T  </i>
   <i type="logical" name="LSCAAWARE"> F  </i>
   <i type="logical" name="LSCALU"> F  </i>
   <i type="logical" name="LASYNC"> F  </i>
   <i type="logical" name="LORBITALREAL"> F  </i>
  </separator>
  <separator name="miscellaneous" >
   <i type="int" name="IDIOT">     3</i>
   <i type="int" name="ISPECIAL">     0</i>
   <i type="logical" name="LMUSIC"> F  </i>
   <v name="POMASS">    106.42000000     12.01100000     16.00000000</v>
   <v name="DARWINR">      0.00000000      0.00000000      0.00000000</v>
   <v name="DARWINV">      1.00000000      1.00000000      1.00000000</v>
   <i type="logical" name="LCORR"> T  </i>
  </separator>
  <i type="logical" name="GGA_COMPAT"> T  </i>
  <i type="logical" name="LBERRY"> F  </i>
  <i type="int" name="ICORELEVEL">     0</i>
  <i type="logical" name="LDAU"> F  </i>
  <i type="int" name="I_CONSTRAINED_M">     0</i>
  <separator name="electronic exchange-correlation" >
   <i type="string" name="GGA">RP</i>
   <i type="int" name="VOSKOWN">     0</i>
   <i type="logical" name="LHFCALC"> F  </i>
   <i type="string" name="PRECFOCK"></i>
   <i type="logical" name="LSYMGRAD"> F  </i>
   <i type="logical" name="LHFONE"> F  </i>
   <i type="logical" name="LRHFCALC"> F  </i>
   <i type="logical" name="LTHOMAS"> F  </i>
   <i type="logical" name="LMODELHF"> F  </i>
   <i name="ENCUT4O">     -1.00000000</i>
   <i type="int" name="EXXOEP">     0</i>
   <i type="int" name="FOURORBIT">     0</i>
   <i name="AEXX">      0.00000000</i>
   <i name="HFALPHA">      0.00000000</i>
   <i name="MCALPHA">      0.00000000</i>
   <i name="ALDAX">      1.00000000</i>
   <i name="AGGAX">      1.00000000</i>
   <i name="ALDAC">      1.00000000</i>
   <i name="AGGAC">      1.00000000</i>
   <i type="int" name="NKREDX">     1</i>
   <i type="int" name="NKREDY">     1</i>
   <i type="int" name="NKREDZ">     1</i>
   <i type="logical" name="SHIFTRED"> F  </i>
   <i type="logical" name="ODDONLY"> F  </i>
   <i type="logical" name="EVENONLY"> F  </i>
   <i type="int" name="LMAXFOCK">     0</i>
   <i type="int" name="NMAXFOCKAE">     0</i>
   <i type="logical" name="LFOCKAEDFT"> F  </i>
   <i name="HFSCREEN">      0.00000000</i>
   <i name="HFSCREENC">      0.00000000</i>
   <i type="int" name="NBANDSGWLOW">     0</i>
  </separator>
  <separator name="vdW DFT" >
   <i type="logical" name="LUSE_VDW"> F  </i>
   <i name="Zab_VDW">     -0.84910000</i>
   <i name="PARAM1">      0.12340000</i>
   <i name="PARAM2">      1.00000000</i>
   <i name="PARAM3">      0.00000000</i>
  </separator>
  <separator name="model GW" >
   <i type="int" name="MODEL_GW">     0</i>
   <i name="MODEL_EPS0">    284.21052632</i>
   <i name="MODEL_ALPHA">      1.00000000</i>
  </separator>
  <separator name="linear response parameters" >
   <i type="logical" name="LEPSILON"> F  </i>
   <i type="logical" name="LRPA"> F  </i>
   <i type="logical" name="LNABLA"> F  </i>
   <i type="logical" name="LVEL"> F  </i>
   <i type="int" name="KINTER">     0</i>
   <i name="CSHIFT">      0.10000000</i>
   <i name="OMEGAMAX">     -1.00000000</i>
   <i name="DEG_THRESHOLD">      0.00200000</i>
   <i name="RTIME">     -0.10000000</i>
   <i name="WPLASMAI">      0.00000000</i>
   <v name="DFIELD">      0.00000000      0.00000000      0.00000000</v>
   <v name="WPLASMA">      0.00000000      0.00000000      0.00000000      0.00000000      0.00000000      0.00000000      0.00000000      0.00000000      0.00000000</v>
  </separator>
  <separator name="orbital magnetization" >
   <i type="logical" name="NUCIND"> F  </i>
   <v name="MAGPOS">      0.00000000      0.00000000      0.00000000</v>
   <i type="logical" name="LNICSALL"> T  </i>
   <i type="logical" name="ORBITALMAG"> F  </i>
   <i type="logical" name="LMAGBLOCH"> F  </i>
   <i type="logical" name="LCHIMAG"> F  </i>
   <i type="logical" name="LGAUGE"> T  </i>
   <i type="int" name="MAGATOM">     0</i>
   <v name="MAGDIPOL">      0.00000000      0.00000000      0.00000000</v>
   <v name="AVECCONST">      0.00000000      0.00000000      0.00000000</v>
  </separator>
  <separator name="response functions" >
   <i type="logical" name="LADDER"> F  </i>
   <i type="logical" name="LRPAFORCE"> F  </i>
   <i type="logical" name="LFXC"> F  </i>
   <i type="logical" name="LHARTREE"> T  </i>
   <i type="int" name="IBSE">     0</i>
   <v type="int" name="KPOINT">    -1     0     0     0</v>
   <i type="logical" name="LTCTE"> F  </i>
   <i type="logical" name="LTETE"> F  </i>
   <i type="logical" name="LTRIPLET"> F  </i>
   <i type="logical" name="LFXCEPS"> F  </i>
   <i type="logical" name="LFXHEG"> F  </i>
   <i type="int" name="NATURALO">     2</i>
   <i type="logical" name="L2ORDER"> F  </i>
   <i type="logical" name="LMP2LT"> F  </i>
   <i type="logical" name="LUSEW"> F  </i>
   <i name="ENCUTGW">     -2.00000000</i>
   <i name="ENCUTGWSOFT">     -2.00000000</i>
   <i name="ENCUTLF">     -1.00000000</i>
   <i type="int" name="LMAXMP2">    -1</i>
   <i name="SCISSOR">      0.00000000</i>
   <i type="int" name="NOMEGA">     0</i>
   <i type="int" name="NOMEGAR">     0</i>
   <i type="int" name="NBANDSGW">    -1</i>
   <i type="int" name="NBANDSO">    -1</i>
   <i type="int" name="NBANDSV">    -1</i>
   <i type="int" name="NELM">   100</i>
   <i type="int" name="NELMHF">     1</i>
   <i type="int" name="DIM">     3</i>
   <i type="int" name="ANTIRES">     0</i>
   <i name="OMEGAMAX">    -30.00000000</i>
   <i name="OMEGAMIN">    -30.00000000</i>
   <i name="OMEGATL">   -200.00000000</i>
   <i type="int" name="OMEGAGRID">   140</i>
   <i name="CSHIFT">     -0.10000000</i>
   <i type="logical" name="SELFENERGY"> F  </i>
   <i type="logical" name="LSPECTRAL"> F  </i>
   <i type="logical" name="LSPECTRALGW"> F  </i>
   <i type="logical" name="LSINGLES"> F  </i>
   <i type="logical" name="LFERMIGW"> F  </i>
   <i type="logical" name="ODDONLYGW"> F  </i>
   <i type="logical" name="EVENONLYGW"> F  </i>
   <i type="int" name="NKREDLFX">     1</i>
   <i type="int" name="NKREDLFY">     1</i>
   <i type="int" name="NKREDLFZ">     1</i>
   <i type="int" name="MAXMEM"> 10000</i>
   <i type="int" name="TELESCOPE">     0</i>
   <i type="int" name="TAUPAR">     1</i>
   <i type="int" name="OMEGAPAR">    -1</i>
   <i name="LAMBDA">      1.00000000</i>
  </separator>
  <separator name="External order field" >
   <i name="OFIELD_KAPPA">      0.00000000</i>
   <v name="OFIELD_K">      0.00000000      0.00000000      0.00000000</v>
   <i name="OFIELD_Q6_NEAR">      0.00000000</i>
   <i name="OFIELD_Q6_FAR">      0.00000000</i>
   <i name="OFIELD_A">      0.00000000</i>
  </separator>
 </parameters>
 <atominfo>
  <atoms>      57 </atoms>
  <types>       3 </types>
  <array name="atoms" >
   <dimension dim="1">ion</dimension>
   <field type="string">element</field>
   <field type="int">atomtype</field>
   <set>
    <rc><c>Pd</c><c>   1</c></rc>
    <rc><c>Pd</c><c>   1</c></rc>
    <rc><c>Pd</c><c>   1</c></rc>
    <rc><c>Pd</c><c>   1</c></rc>
    <rc><c>Pd</c><c>   1</c></rc>
    <rc><c>Pd</c><c>   1</c></rc>
    <rc><c>Pd</c><c>   1</c></rc>
    <rc><c>Pd</c><c>   1</c></rc>
    <rc><c>Pd</c><c>   1</c></rc>
    <rc><c>Pd</c><c>   1</c></rc>
    <rc><c>Pd</c><c>   1</c></rc>
    <rc><c>Pd</c><c>   1</c></rc>
    <rc><c>Pd</c><c>   1</c></rc>
    <rc><c>Pd</c><c>   1</c></rc>
    <rc><c>Pd</c><c>   1</c></rc>
    <rc><c>Pd</c><c>   1</c></rc>
    <rc><c>Pd</c><c>   1</c></rc>
    <rc><c>Pd</c><c>   1</c></rc>
    <rc><c>Pd</c><c>   1</c></rc>
    <rc><c>Pd</c><c>   1</c></rc>
    <rc><c>Pd</c><c>   1</c></rc>
    <rc><c>Pd</c><c>   1</c></rc>
    <rc><c>Pd</c><c>   1</c></rc>
    <rc><c>Pd</c><c>   1</c></rc>
    <rc><c>Pd</c><c>   1</c></rc>
    <rc><c>Pd</c><c>   1</c></rc>
    <rc><c>Pd</c><c>   1</c></rc>
    <rc><c>Pd</c><c>   1</c></rc>
    <rc><c>Pd</c><c>   1</c></rc>
    <rc><c>Pd</c><c>   1</c></rc>
    <rc><c>Pd</c><c>   1</c></rc>
    <rc><c>Pd</c><c>   1</c></rc>
    <rc><c>Pd</c><c>   1</c></rc>
    <rc><c>Pd</c><c>   1</c></rc>
    <rc><c>Pd</c><c>   1</c></rc>
    <rc><c>Pd</c><c>   1</c></rc>
    <rc><c>Pd</c><c>   1</c></rc>
    <rc><c>Pd</c><c>   1</c></rc>
    <rc><c>Pd</c><c>   1</c></rc>
    <rc><c>Pd</c><c>   1</c></rc>
    <rc><c>Pd</c><c>   1</c></rc>
    <rc><c>Pd</c><c>   1</c></rc>
    <rc><c>Pd</c><c>   1</c></rc>
    <rc><c>Pd</c><c>   1</c></rc>
    <rc><c>Pd</c><c>   1</c></rc>
    <rc><c>Pd</c><c>   1</c></rc>
    <rc><c>Pd</c><c>   1</c></rc>
    <rc><c>Pd</c><c>   1</c></rc>
    <rc><c>Pd</c><c>   1</c></rc>
    <rc><c>Pd</c><c>   1</c></rc>
    <rc><c>Pd</c><c>   1</c></rc>
    <rc><c>Pd</c><c>   1</c></rc>
    <rc><c>Pd</c><c>   1</c></rc>
    <rc><c>Pd</c><c>   1</c></rc>
    <rc><c>Pd</c><c>   1</c></rc>
    <rc><c>C </c><c>   2</c></rc>
    <rc><c>O </c><c>   3</c></rc>
   </set>
  </array>
  <array name="atomtypes" >
   <dimension dim="1">type</dimension>
   <field type="int">atomspertype</field>
   <field type="string">element</field>
   <field>mass</field>
   <field>valence</field>
   <field type="string">pseudopotential</field>
   <set>
    <rc><c>  55</c><c>Pd</c><c>    106.42000000</c><c>     10.00000000</c><c>  PAW_PBE Pd 04Jan2005                  </c></rc>
    <rc><c>   1</c><c>C </c><c>     12.01100000</c><c>      4.00000000</c><c>  PAW_PBE C 08Apr2002                   </c></rc>
    <rc><c>   1</c><c>O </c><c>     16.00000000</c><c>      6.00000000</c><c>  PAW_PBE O 08Apr2002                   </c></rc>
   </set>
  </array>
 </atominfo>
 <structure name="initialpos" >
  <crystal>
   <varray name="basis" >
    <v>      30.00000000       0.00000000       0.00000000 </v>
    <v>       0.00000000      30.00000000       0.00000000 </v>
    <v>       0.00000000       0.00000000      30.00000000 </v>
   </varray>
   <i name="volume">  27000.00000000 </i>
   <varray name="rec_basis" >
    <v>       0.03333333       0.00000000       0.00000000 </v>
    <v>       0.00000000       0.03333333       0.00000000 </v>
    <v>       0.00000000       0.00000000       0.03333333 </v>
   </varray>
  </crystal>
  <varray name="positions" >
   <v>       0.44576020       0.32826710       0.41691983 </v>
   <v>       0.67173288       0.55423978       0.41691983 </v>
   <v>       0.55423980       0.32826710       0.41691983 </v>
   <v>       0.32826712       0.55423978       0.41691983 </v>
   <v>       0.50000000       0.38250690       0.34021317 </v>
   <v>       0.50000000       0.38250690       0.65978680 </v>
   <v>       0.50000000       0.27609440       0.50000000 </v>
   <v>       0.27609443       0.49999998       0.50000000 </v>
   <v>       0.72390557       0.49999998       0.50000000 </v>
   <v>       0.50000000       0.72390555       0.50000000 </v>
   <v>       0.61195280       0.38804720       0.34167483 </v>
   <v>       0.61195280       0.38804720       0.65832513 </v>
   <v>       0.38804722       0.61195278       0.34167483 </v>
   <v>       0.38804722       0.61195278       0.65832513 </v>
   <v>       0.38804720       0.38804720       0.34167483 </v>
   <v>       0.38804720       0.38804720       0.65832513 </v>
   <v>       0.61195278       0.61195278       0.34167483 </v>
   <v>       0.61195278       0.61195278       0.65832513 </v>
   <v>       0.44576020       0.32826710       0.58308023 </v>
   <v>       0.67173288       0.55423978       0.58308023 </v>
   <v>       0.55791699       0.44208301       0.41809300 </v>
   <v>       0.32826705       0.44576024       0.41691983 </v>
   <v>       0.55423973       0.67173293       0.41691983 </v>
   <v>       0.55423980       0.32826710       0.58308023 </v>
   <v>       0.32826712       0.55423978       0.58308023 </v>
   <v>       0.67173295       0.44576024       0.41691983 </v>
   <v>       0.44576027       0.67173293       0.41691983 </v>
   <v>       0.44208301       0.44208301       0.41809300 </v>
   <v>       0.50000000       0.38416601       0.50000000 </v>
   <v>       0.61749315       0.50000005       0.34021317 </v>
   <v>       0.61749315       0.50000005       0.65978680 </v>
   <v>       0.38250685       0.50000005       0.34021317 </v>
   <v>       0.38250685       0.50000005       0.65978680 </v>
   <v>       0.38317830       0.38317830       0.50000000 </v>
   <v>       0.61682172       0.61682172       0.50000000 </v>
   <v>       0.61682170       0.38317830       0.50000000 </v>
   <v>       0.38317828       0.61682172       0.50000000 </v>
   <v>       0.50000000       0.50000000       0.33478917 </v>
   <v>       0.50000000       0.50000000       0.66521087 </v>
   <v>       0.32826705       0.44576024       0.58308023 </v>
   <v>       0.55423973       0.67173293       0.58308023 </v>
   <v>       0.55791699       0.44208301       0.58190703 </v>
   <v>       0.44208298       0.55791702       0.41809300 </v>
   <v>       0.44208301       0.44208301       0.58190703 </v>
   <v>       0.67173295       0.44576024       0.58308023 </v>
   <v>       0.44576027       0.67173293       0.58308023 </v>
   <v>       0.55791702       0.55791702       0.41809300 </v>
   <v>       0.38416599       0.50000002       0.50000000 </v>
   <v>       0.61583401       0.50000002       0.50000000 </v>
   <v>       0.50000000       0.61749319       0.34021317 </v>
   <v>       0.50000000       0.61749319       0.65978680 </v>
   <v>       0.50000000       0.50000000       0.50000000 </v>
   <v>       0.44208298       0.55791702       0.58190703 </v>
   <v>       0.55791702       0.55791702       0.58190703 </v>
   <v>       0.50000000       0.61583404       0.50000000 </v>
   <v>       0.48004350       0.71111780       0.62095627 </v>
   <v>       0.47696987       0.74363340       0.63958553 </v>
  </varray>
  <varray name="selective"  type="logical" >
   <v type="logical" >  F  F  F </v>
   <v type="logical" >  F  F  F </v>
   <v type="logical" >  F  F  F </v>
   <v type="logical" >  F  F  F </v>
   <v type="logical" >  F  F  F </v>
   <v type="logical" >  F  F  F </v>
   <v type="logical" >  F  F  F </v>
   <v type="logical" >  F  F  F </v>
   <v type="logical" >  F  F  F </v>
   <v type="logical" >  F  F  F </v>
   <v type="logical" >  F  F  F </v>
   <v type="logical" >  F  F  F </v>
   <v type="logical" >  F  F  F </v>
   <v type="logical" >  F  F  F </v>
   <v type="logical" >  F  F  F </v>
   <v type="logical" >  F  F  F </v>
   <v type="logical" >  F  F  F </v>
   <v type="logical" >  F  F  F </v>
   <v type="logical" >  F  F  F </v>
   <v type="logical" >  F  F  F </v>
   <v type="logical" >  F  F  F </v>
   <v type="logical" >  F  F  F </v>
   <v type="logical" >  F  F  F </v>
   <v type="logical" >  F  F  F </v>
   <v type="logical" >  F  F  F </v>
   <v type="logical" >  F  F  F </v>
   <v type="logical" >  F  F  F </v>
   <v type="logical" >  F  F  F </v>
   <v type="logical" >  F  F  F </v>
   <v type="logical" >  F  F  F </v>
   <v type="logical" >  F  F  F </v>
   <v type="logical" >  F  F  F </v>
   <v type="logical" >  F  F  F </v>
   <v type="logical" >  F  F  F </v>
   <v type="logical" >  F  F  F </v>
   <v type="logical" >  F  F  F </v>
   <v type="logical" >  F  F  F </v>
   <v type="logical" >  F  F  F </v>
   <v type="logical" >  F  F  F </v>
   <v type="logical" >  F  F  F </v>
   <v type="logical" >  F  F  F </v>
   <v type="logical" >  F  F  F </v>
   <v type="logical" >  F  F  F </v>
   <v type="logical" >  F  F  F </v>
   <v type="logical" >  F  F  F </v>
   <v type="logical" >  F  F  F </v>
   <v type="logical" >  F  F  F </v>
   <v type="logical" >  F  F  F </v>
   <v type="logical" >  F  F  F </v>
   <v type="logical" >  F  F  F </v>
   <v type="logical" >  F  F  F </v>
   <v type="logical" >  F  F  F </v>
   <v type="logical" >  F  F  F </v>
   <v type="logical" >  F  F  F </v>
   <v type="logical" >  F  F  F </v>
   <v type="logical" >  F  F  F </v>
   <v type="logical" >  F  F  F </v>
  </varray>
  <nose>
   <v>      -3.00000000       0.00000000       0.00010000       0.00010000 </v>
  </nose>
 </structure>
 <calculation>
  <scstep>
   <time name="dav">  520.34  520.65</time>
   <time name="total">  542.62  542.93</time>
   <energy>
    <i name="alphaZ">     75.25431677 </i>
    <i name="ewald"> 138451.89916179 </i>
    <i name="hartreedc">-181811.20416534 </i>
    <i name="XCdc">  -1702.81185292 </i>
    <i name="pawpsdc">  44873.02882129 </i>
    <i name="pawaedc"> -41398.84523641 </i>
    <i name="eentropy">      0.00003077 </i>
    <i name="bandstr">    817.61662446 </i>
    <i name="atom">  45086.50549395 </i>
    <i name="e_fr_energy">   4391.44319436 </i>
    <i name="e_wo_entrp">   4391.44316359 </i>
    <i name="e_0_energy">   4391.44318666 </i>
   </energy>
  </scstep>
  <scstep>
   <time name="dav">  822.14  822.13</time>
   <time name="total">  822.14  822.14</time>
   <energy>
    <i name="e_fr_energy">   2013.75553474 </i>
    <i name="e_wo_entrp">   2013.81089931 </i>
    <i name="e_0_energy">   2013.76937588 </i>
   </energy>
  </scstep>
  <scstep>
   <time name="dav">  703.31  703.31</time>
   <time name="total">  703.31  703.31</time>
   <energy>
    <i name="e_fr_energy">    234.02712993 </i>
    <i name="e_wo_entrp">    234.02719685 </i>
    <i name="e_0_energy">    234.02714666 </i>
   </energy>
  </scstep>
  <scstep>
   <time name="dav">  601.17  601.17</time>
   <time name="total">  601.17  601.17</time>
   <energy>
    <i name="e_fr_energy">   -135.35649884 </i>
    <i name="e_wo_entrp">   -135.36926392 </i>
    <i name="e_0_energy">   -135.35969011 </i>
   </energy>
  </scstep>
  <scstep>
   <time name="dav">  727.36  727.38</time>
   <time name="total">  760.22  760.24</time>
   <energy>
    <i name="e_fr_energy">   -180.19192863 </i>
    <i name="e_wo_entrp">   -180.65734479 </i>
    <i name="e_0_energy">   -180.30828267 </i>
   </energy>
  </scstep>
  <scstep>
   <time name="diag">   93.27   93.27</time>
   <time name="diis">  245.54  245.54</time>
   <time name="orth">   19.94   19.94</time>
   <time name="total">  409.99  409.99</time>
   <energy>
    <i name="e_fr_energy">   -180.44151540 </i>
    <i name="e_wo_entrp">   -180.26445170 </i>
    <i name="e_0_energy">   -180.39724947 </i>
   </energy>
  </scstep>
  <scstep>
   <time name="diag">   96.05   96.06</time>
   <time name="diis">  304.25  304.25</time>
   <time name="orth">   20.86   20.86</time>
   <time name="total">  474.07  474.06</time>
   <energy>
    <i name="e_fr_energy">   -182.46801051 </i>
    <i name="e_wo_entrp">   -182.51849210 </i>
    <i name="e_0_energy">   -182.48063091 </i>
   </energy>
  </scstep>
  <scstep>
   <time name="diag">   98.55   98.55</time>
   <time name="diis">  293.51  293.51</time>
   <time name="orth">   20.98   20.98</time>
   <time name="total">  468.23  468.42</time>
   <energy>
    <i name="e_fr_energy">   -184.53982679 </i>
    <i name="e_wo_entrp">   -184.41053758 </i>
    <i name="e_0_energy">   -184.50750449 </i>
   </energy>
  </scstep>
  <scstep>
   <time name="diag">   98.34   98.34</time>
   <time name="diis">  261.27  261.27</time>
   <time name="orth">   20.78   20.78</time>
   <time name="total">  435.67  435.67</time>
   <energy>
    <i name="e_fr_energy">   -183.58247121 </i>
    <i name="e_wo_entrp">   -183.40529089 </i>
    <i name="e_0_energy">   -183.53817613 </i>
   </energy>
  </scstep>
  <scstep>
   <time name="diag">   98.90   98.90</time>
   <time name="diis">  260.67  260.68</time>
   <time name="orth">   20.99   20.99</time>
   <time name="total">  435.24  435.25</time>
   <energy>
    <i name="e_fr_energy">   -180.63878286 </i>
    <i name="e_wo_entrp">   -180.55882933 </i>
    <i name="e_0_energy">   -180.61879447 </i>
   </energy>
  </scstep>
  <scstep>
   <time name="diag">   98.58   98.59</time>
   <time name="diis">  258.24  258.23</time>
   <time name="orth">   20.85   20.85</time>
   <time name="total">  432.15  432.15</time>
   <energy>
    <i name="e_fr_energy">   -178.73772708 </i>
    <i name="e_wo_entrp">   -178.63120474 </i>
    <i name="e_0_energy">   -178.71109650 </i>
   </energy>
  </scstep>
  <scstep>
   <time name="diag">   98.99   98.99</time>
   <time name="diis">  260.33  260.32</time>
   <time name="orth">   20.67   20.67</time>
   <time name="total">  434.87  434.87</time>
   <energy>
    <i name="e_fr_energy">   -178.06256217 </i>
    <i name="e_wo_entrp">   -177.96910346 </i>
    <i name="e_0_energy">   -178.03919749 </i>
   </energy>
  </scstep>
  <scstep>
   <time name="diag">  100.32  100.32</time>
   <time name="diis">  260.62  260.62</time>
   <time name="orth">   20.93   20.93</time>
   <time name="total">  435.57  435.57</time>
   <energy>
    <i name="e_fr_energy">   -177.78955323 </i>
    <i name="e_wo_entrp">   -177.72560622 </i>
    <i name="e_0_energy">   -177.77356648 </i>
   </energy>
  </scstep>
  <scstep>
   <time name="diag">   98.45   98.45</time>
   <time name="diis">  232.54  232.54</time>
   <time name="orth">   19.26   19.26</time>
   <time name="total">  400.45  400.45</time>
   <energy>
    <i name="e_fr_energy">   -177.14445045 </i>
    <i name="e_wo_entrp">   -176.97261190 </i>
    <i name="e_0_energy">   -177.10149082 </i>
   </energy>
  </scstep>
  <scstep>
   <time name="diag">   88.83   88.83</time>
   <time name="diis">  220.14  220.14</time>
   <time name="orth">   18.97   18.97</time>
   <time name="total">  375.47  375.59</time>
   <energy>
    <i name="e_fr_energy">   -176.82558064 </i>
    <i name="e_wo_entrp">   -176.76336184 </i>
    <i name="e_0_energy">   -176.81002594 </i>
   </energy>
  </scstep>
  <scstep>
   <time name="diag">   88.36   88.36</time>
   <time name="diis">  223.18  223.18</time>
   <time name="orth">   18.95   18.95</time>
   <time name="total">  377.80  377.81</time>
   <energy>
    <i name="e_fr_energy">   -176.95010407 </i>
    <i name="e_wo_entrp">   -176.93598646 </i>
    <i name="e_0_energy">   -176.94657467 </i>
   </energy>
  </scstep>
  <scstep>
   <time name="diag">   88.95   88.95</time>
   <time name="diis">  226.36  226.36</time>
   <time name="orth">   19.03   19.03</time>
   <time name="total">  381.83  381.83</time>
   <energy>
    <i name="e_fr_energy">   -175.90766473 </i>
    <i name="e_wo_entrp">   -175.82988356 </i>
    <i name="e_0_energy">   -175.88821944 </i>
   </energy>
  </scstep>
  <scstep>
   <time name="diag">   88.22   88.23</time>
   <time name="diis">  217.81  217.81</time>
   <time name="orth">   18.90   18.90</time>
   <time name="total">  373.23  373.24</time>
   <energy>
    <i name="e_fr_energy">   -176.00154827 </i>
    <i name="e_wo_entrp">   -176.06393589 </i>
    <i name="e_0_energy">   -176.01714518 </i>
   </energy>
  </scstep>
  <scstep>
   <time name="diag">   87.95   87.95</time>
   <time name="diis">  218.82  218.82</time>
   <time name="orth">   18.95   18.95</time>
   <time name="total">  373.46  373.47</time>
   <energy>
    <i name="e_fr_energy">   -175.75778211 </i>
    <i name="e_wo_entrp">   -175.71769280 </i>
    <i name="e_0_energy">   -175.74775978 </i>
   </energy>
  </scstep>
  <scstep>
   <time name="diag">   87.93   87.93</time>
   <time name="diis">  218.82  218.82</time>
   <time name="orth">   18.99   18.99</time>
   <time name="total">  373.55  373.55</time>
   <energy>
    <i name="e_fr_energy">   -175.70530060 </i>
    <i name="e_wo_entrp">   -175.66580051 </i>
    <i name="e_0_energy">   -175.69542558 </i>
   </energy>
  </scstep>
  <scstep>
   <time name="diag">   88.49   88.49</time>
   <time name="diis">  217.33  217.33</time>
   <time name="orth">   19.01   19.01</time>
   <time name="total">  372.93  372.93</time>
   <energy>
    <i name="e_fr_energy">   -175.60539089 </i>
    <i name="e_wo_entrp">   -175.51987293 </i>
    <i name="e_0_energy">   -175.58401140 </i>
   </energy>
  </scstep>
  <scstep>
   <time name="diag">   88.44   88.44</time>
   <time name="diis">  217.77  217.77</time>
   <time name="orth">   19.03   19.03</time>
   <time name="total">  373.34  373.34</time>
   <energy>
    <i name="e_fr_energy">   -175.52344713 </i>
    <i name="e_wo_entrp">   -175.43967138 </i>
    <i name="e_0_energy">   -175.50250319 </i>
   </energy>
  </scstep>
  <scstep>
   <time name="diag">   88.71   88.70</time>
   <time name="diis">  219.31  219.35</time>
   <time name="orth">   19.01   19.01</time>
   <time name="total">  374.62  374.65</time>
   <energy>
    <i name="e_fr_energy">   -175.43407289 </i>
    <i name="e_wo_entrp">   -175.30348082 </i>
    <i name="e_0_energy">   -175.40142487 </i>
   </energy>
  </scstep>
  <scstep>
   <time name="diag">   88.17   88.17</time>
   <time name="diis">  218.52  218.52</time>
   <time name="orth">   19.03   19.03</time>
   <time name="total">  373.67  373.66</time>
   <energy>
    <i name="e_fr_energy">   -175.27625671 </i>
    <i name="e_wo_entrp">   -175.12690086 </i>
    <i name="e_0_energy">   -175.23891775 </i>
   </energy>
  </scstep>
  <scstep>
   <time name="diag">   88.49   88.49</time>
   <time name="diis">  216.21  216.21</time>
   <time name="orth">   19.12   19.12</time>
   <time name="total">  371.89  371.89</time>
   <energy>
    <i name="e_fr_energy">   -175.19893311 </i>
    <i name="e_wo_entrp">   -175.04610382 </i>
    <i name="e_0_energy">   -175.16072579 </i>
   </energy>
  </scstep>
  <scstep>
   <time name="diag">   88.71   88.71</time>
   <time name="diis">  218.84  218.83</time>
   <time name="orth">   19.04   19.04</time>
   <time name="total">  374.60  374.60</time>
   <energy>
    <i name="e_fr_energy">   -175.10073196 </i>
    <i name="e_wo_entrp">   -174.98906402 </i>
    <i name="e_0_energy">   -175.07281498 </i>
   </energy>
  </scstep>
  <scstep>
   <time name="diag">   88.54   88.54</time>
   <time name="diis">  217.90  217.90</time>
   <time name="orth">   19.15   19.15</time>
   <time name="total">  373.85  373.85</time>
   <energy>
    <i name="e_fr_energy">   -175.11148697 </i>
    <i name="e_wo_entrp">   -174.96435874 </i>
    <i name="e_0_energy">   -175.07470491 </i>
   </energy>
  </scstep>
  <scstep>
   <time name="diag">   88.88   88.88</time>
   <time name="diis">  222.73  222.73</time>
   <time name="orth">   19.39   19.39</time>
   <time name="total">  380.35  380.35</time>
   <energy>
    <i name="e_fr_energy">   -175.06684339 </i>
    <i name="e_wo_entrp">   -174.93882388 </i>
    <i name="e_0_energy">   -175.03483852 </i>
   </energy>
  </scstep>
  <scstep>
   <time name="diag">   90.21   90.20</time>
   <time name="diis">  223.79  223.79</time>
   <time name="orth">   19.45   19.45</time>
   <time name="total">  383.95  383.95</time>
   <energy>
    <i name="e_fr_energy">   -175.03850355 </i>
    <i name="e_wo_entrp">   -174.91205375 </i>
    <i name="e_0_energy">   -175.00689110 </i>
   </energy>
  </scstep>
  <scstep>
   <time name="diag">   90.39   90.39</time>
   <time name="diis">  225.47  225.47</time>
   <time name="orth">   19.44   19.44</time>
   <time name="total">  385.98  385.98</time>
   <energy>
    <i name="e_fr_energy">   -175.03457252 </i>
    <i name="e_wo_entrp">   -174.90880401 </i>
    <i name="e_0_energy">   -175.00313039 </i>
   </energy>
  </scstep>
  <scstep>
   <time name="diag">   90.85   90.85</time>
   <time name="diis">  225.97  225.97</time>
   <time name="orth">   19.41   19.41</time>
   <time name="total">  386.73  386.84</time>
   <energy>
    <i name="e_fr_energy">   -175.02279657 </i>
    <i name="e_wo_entrp">   -174.89401463 </i>
    <i name="e_0_energy">   -174.99060108 </i>
   </energy>
  </scstep>
  <scstep>
   <time name="diag">   91.45   91.45</time>
   <time name="diis">  225.01  225.01</time>
   <time name="orth">   19.32   19.32</time>
   <time name="total">  386.33  386.34</time>
   <energy>
    <i name="e_fr_energy">   -175.02020766 </i>
    <i name="e_wo_entrp">   -174.89702434 </i>
    <i name="e_0_energy">   -174.98941183 </i>
   </energy>
  </scstep>
  <scstep>
   <time name="diag">   91.48   91.48</time>
   <time name="diis">  225.52  225.52</time>
   <time name="orth">   19.71   19.71</time>
   <time name="total">  387.97  387.96</time>
   <energy>
    <i name="e_fr_energy">   -175.01767057 </i>
    <i name="e_wo_entrp">   -174.89262019 </i>
    <i name="e_0_energy">   -174.98640798 </i>
   </energy>
  </scstep>
  <scstep>
   <time name="diag">   95.45   95.45</time>
   <time name="diis">  236.16  236.16</time>
   <time name="orth">   20.33   20.33</time>
   <time name="total">  405.27  405.34</time>
   <energy>
    <i name="e_fr_energy">   -175.01526308 </i>
    <i name="e_wo_entrp">   -174.88934472 </i>
    <i name="e_0_energy">   -174.98378349 </i>
   </energy>
  </scstep>
  <scstep>
   <time name="diag">   95.81   95.81</time>
   <time name="diis">  236.04  236.03</time>
   <time name="orth">   20.29   20.28</time>
   <time name="total">  406.38  406.38</time>
   <energy>
    <i name="e_fr_energy">   -175.01781235 </i>
    <i name="e_wo_entrp">   -174.89314420 </i>
    <i name="e_0_energy">   -174.98664532 </i>
   </energy>
  </scstep>
  <scstep>
   <time name="diag">   96.15   96.15</time>
   <time name="diis">  235.57  235.56</time>
   <time name="orth">   20.29   20.29</time>
   <time name="total">  406.38  406.38</time>
   <energy>
    <i name="e_fr_energy">   -175.01519804 </i>
    <i name="e_wo_entrp">   -174.89107676 </i>
    <i name="e_0_energy">   -174.98416772 </i>
   </energy>
  </scstep>
  <scstep>
   <time name="diag">   95.81   95.81</time>
   <time name="diis">  235.29  235.29</time>
   <time name="orth">   20.35   20.35</time>
   <time name="total">  406.03  406.03</time>
   <energy>
    <i name="e_fr_energy">   -175.01604286 </i>
    <i name="e_wo_entrp">   -174.89306423 </i>
    <i name="e_0_energy">   -174.98529820 </i>
   </energy>
  </scstep>
  <scstep>
   <time name="diag">   95.85   95.85</time>
   <time name="diis">  238.23  238.23</time>
   <time name="orth">   21.04   21.04</time>
   <time name="total">  412.40  412.40</time>
   <energy>
    <i name="e_fr_energy">   -175.01715198 </i>
    <i name="e_wo_entrp">   -174.89214530 </i>
    <i name="e_0_energy">   -174.98590031 </i>
   </energy>
  </scstep>
  <scstep>
   <time name="diag">   99.08   99.08</time>
   <time name="diis">  242.47  242.47</time>
   <time name="orth">   21.30   21.30</time>
   <time name="total">  420.22  420.22</time>
   <energy>
    <i name="e_fr_energy">   -175.01853747 </i>
    <i name="e_wo_entrp">   -174.89119748 </i>
    <i name="e_0_energy">   -174.98670247 </i>
   </energy>
  </scstep>
  <scstep>
   <time name="diag">  100.20  100.20</time>
   <time name="diis">  236.99  236.99</time>
   <time name="orth">   21.14   21.14</time>
   <time name="total">  417.04  417.04</time>
   <energy>
    <i name="e_fr_energy">   -175.02170480 </i>
    <i name="e_wo_entrp">   -174.89683628 </i>
    <i name="e_0_energy">   -174.99048767 </i>
   </energy>
  </scstep>
  <scstep>
   <time name="diag">   98.46   98.46</time>
   <time name="diis">  193.82  193.82</time>
   <time name="orth">   20.94   20.94</time>
   <time name="total">  369.70  369.70</time>
   <energy>
    <i name="e_fr_energy">   -175.02361019 </i>
    <i name="e_wo_entrp">   -174.89932307 </i>
    <i name="e_0_energy">   -174.99253841 </i>
   </energy>
  </scstep>
  <scstep>
   <time name="diag">   98.60   98.60</time>
   <time name="diis">  203.33  203.33</time>
   <time name="orth">   21.04   21.04</time>
   <time name="total">  380.33  380.33</time>
   <energy>
    <i name="e_fr_energy">   -175.02644085 </i>
    <i name="e_wo_entrp">   -174.90096117 </i>
    <i name="e_0_energy">   -174.99507093 </i>
   </energy>
  </scstep>
  <scstep>
   <time name="diag">   99.07   99.07</time>
   <time name="diis">  203.67  203.67</time>
   <time name="orth">   21.06   21.06</time>
   <time name="total">  381.38  381.38</time>
   <energy>
    <i name="e_fr_energy">   -175.02953363 </i>
    <i name="e_wo_entrp">   -174.90365228 </i>
    <i name="e_0_energy">   -174.99806329 </i>
   </energy>
  </scstep>
  <scstep>
   <time name="diag">   97.92   97.92</time>
   <time name="diis">  161.65  161.65</time>
   <time name="orth">   21.22   21.22</time>
   <time name="total">  339.89  339.89</time>
   <energy>
    <i name="e_fr_energy">   -175.03077369 </i>
    <i name="e_wo_entrp">   -174.90506213 </i>
    <i name="e_0_energy">   -174.99934580 </i>
   </energy>
  </scstep>
  <scstep>
   <time name="diag">   98.39   98.39</time>
   <time name="diis">  175.49  175.49</time>
   <time name="orth">   21.10   21.10</time>
   <time name="total">  352.85  352.85</time>
   <energy>
    <i name="e_fr_energy">   -175.03342609 </i>
    <i name="e_wo_entrp">   -174.90773529 </i>
    <i name="e_0_energy">   -175.00200339 </i>
   </energy>
  </scstep>
  <scstep>
   <time name="diag">   98.21   98.21</time>
   <time name="diis">  157.50  157.50</time>
   <time name="orth">   20.17   20.17</time>
   <time name="total">  335.94  335.94</time>
   <energy>
    <i name="e_fr_energy">   -175.03465115 </i>
    <i name="e_wo_entrp">   -174.90976709 </i>
    <i name="e_0_energy">   -175.00343014 </i>
   </energy>
  </scstep>
  <scstep>
   <time name="diag">   98.36   98.36</time>
   <time name="diis">  164.86  164.86</time>
   <time name="orth">   20.98   20.98</time>
   <time name="total">  344.47  344.47</time>
   <energy>
    <i name="e_fr_energy">   -175.03677867 </i>
    <i name="e_wo_entrp">   -174.91128424 </i>
    <i name="e_0_energy">   -175.00540506 </i>
   </energy>
  </scstep>
  <scstep>
   <time name="diag">   98.97   98.97</time>
   <time name="diis">  158.87  158.86</time>
   <time name="orth">   21.07   21.07</time>
   <time name="total">  337.59  337.59</time>
   <energy>
    <i name="e_fr_energy">   -175.03765709 </i>
    <i name="e_wo_entrp">   -174.91251085 </i>
    <i name="e_0_energy">   -175.00637053 </i>
   </energy>
  </scstep>
  <scstep>
   <time name="diag">   99.20   99.19</time>
   <time name="diis">  154.72  154.72</time>
   <time name="orth">   20.19   20.19</time>
   <time name="total">  331.36  331.36</time>
   <energy>
    <i name="e_fr_energy">   -175.03844997 </i>
    <i name="e_wo_entrp">   -174.91294352 </i>
    <i name="e_0_energy">   -175.00707336 </i>
   </energy>
  </scstep>
  <scstep>
   <time name="diag">   97.17   97.18</time>
   <time name="diis">  157.07  157.07</time>
   <time name="orth">   20.18   20.18</time>
   <time name="total">  334.55  334.55</time>
   <energy>
    <i name="e_fr_energy">   -175.03934469 </i>
    <i name="e_wo_entrp">   -174.91393212 </i>
    <i name="e_0_energy">   -175.00799155 </i>
   </energy>
  </scstep>
  <scstep>
   <time name="diag">   98.60   98.61</time>
   <time name="diis">  153.62  153.62</time>
   <time name="orth">   20.69   20.69</time>
   <time name="total">  332.48  332.49</time>
   <energy>
    <i name="e_fr_energy">   -175.03965650 </i>
    <i name="e_wo_entrp">   -174.91444328 </i>
    <i name="e_0_energy">   -175.00835319 </i>
   </energy>
  </scstep>
  <scstep>
   <time name="diag">   97.58   97.58</time>
   <time name="diis">  154.58  154.58</time>
   <time name="orth">   20.49   20.49</time>
   <time name="total">  331.46  331.46</time>
   <energy>
    <i name="e_fr_energy">   -175.04049430 </i>
    <i name="e_wo_entrp">   -174.91523935 </i>
    <i name="e_0_energy">   -175.00918056 </i>
   </energy>
  </scstep>
  <scstep>
   <time name="diag">   97.37   97.38</time>
   <time name="diis">  125.15  125.15</time>
   <time name="orth">   21.14   21.14</time>
   <time name="total">  304.26  304.26</time>
   <energy>
    <i name="e_fr_energy">   -175.04078022 </i>
    <i name="e_wo_entrp">   -174.91550759 </i>
    <i name="e_0_energy">   -175.00946207 </i>
   </energy>
  </scstep>
  <scstep>
   <time name="diag">   97.93   97.93</time>
   <time name="diis">  141.72  141.72</time>
   <time name="orth">   20.64   20.63</time>
   <time name="total">  321.14  321.14</time>
   <energy>
    <i name="e_fr_energy">   -175.04139324 </i>
    <i name="e_wo_entrp">   -174.91601210 </i>
    <i name="e_0_energy">   -175.01004796 </i>
   </energy>
  </scstep>
  <scstep>
   <time name="diag">   98.50   98.50</time>
   <time name="diis">  124.59  124.59</time>
   <time name="orth">   21.17   21.17</time>
   <time name="total">  305.19  305.19</time>
   <energy>
    <i name="e_fr_energy">   -175.04178426 </i>
    <i name="e_wo_entrp">   -174.91655067 </i>
    <i name="e_0_energy">   -175.01047586 </i>
   </energy>
  </scstep>
  <scstep>
   <time name="diag">   97.56   97.56</time>
   <time name="diis">  121.08  121.08</time>
   <time name="orth">   21.03   21.03</time>
   <time name="total">  299.84  299.94</time>
   <energy>
    <i name="e_fr_energy">   -175.04198858 </i>
    <i name="e_wo_entrp">   -174.91676992 </i>
    <i name="e_0_energy">   -175.01068392 </i>
   </energy>
  </scstep>
  <scstep>
   <time name="diag">   98.64   98.64</time>
   <time name="diis">  129.73  129.73</time>
   <time name="orth">   21.21   21.21</time>
   <time name="total">  310.39  310.39</time>
   <energy>
    <i name="e_fr_energy">   -175.04235282 </i>
    <i name="e_wo_entrp">   -174.91703427 </i>
    <i name="e_0_energy">   -175.01102318 </i>
   </energy>
  </scstep>
  <scstep>
   <time name="diag">   98.69   98.69</time>
   <time name="diis">  112.88  112.88</time>
   <time name="orth">   21.16   21.16</time>
   <time name="total">  291.09  291.09</time>
   <energy>
    <i name="e_fr_energy">   -175.04249704 </i>
    <i name="e_wo_entrp">   -174.91722846 </i>
    <i name="e_0_energy">   -175.01117989 </i>
   </energy>
  </scstep>
  <scstep>
   <time name="diag">   98.80   98.80</time>
   <time name="diis">  115.19  115.19</time>
   <time name="orth">   21.37   21.37</time>
   <time name="total">  295.41  295.41</time>
   <energy>
    <i name="e_fr_energy">   -175.04264149 </i>
    <i name="e_wo_entrp">   -174.91742952 </i>
    <i name="e_0_energy">   -175.01133849 </i>
   </energy>
  </scstep>
  <scstep>
   <time name="diag">   98.01   98.01</time>
   <time name="diis">  117.90  117.90</time>
   <time name="orth">   20.06   20.06</time>
   <time name="total">  297.17  297.17</time>
   <energy>
    <i name="e_fr_energy">   -175.04280537 </i>
    <i name="e_wo_entrp">   -174.91755735 </i>
    <i name="e_0_energy">   -175.01149336 </i>
   </energy>
  </scstep>
  <scstep>
   <time name="diag">   98.71   98.71</time>
   <time name="diis">  109.17  109.17</time>
   <time name="orth">   20.93   20.93</time>
   <time name="total">  248.85  248.90</time>
   <energy>
    <i name="alphaZ">     75.25431677 </i>
    <i name="ewald"> 138451.89916179 </i>
    <i name="hartreedc">-182800.89785903 </i>
    <i name="XCdc">  -1692.26732752 </i>
    <i name="pawpsdc">  46176.06080331 </i>
    <i name="pawaedc"> -42647.18425688 </i>
    <i name="eentropy">     -0.12524813 </i>
    <i name="bandstr">  -2824.28795876 </i>
    <i name="atom">  45086.50549395 </i>
    <i name="e_fr_energy">   -175.04287450 </i>
    <i name="e_wo_entrp">   -174.91762636 </i>
    <i name="e_0_energy">   -175.01156246 </i>
   </energy>
  </scstep>
  <structure>
   <crystal>
    <varray name="basis" >
     <v>      30.00000000       0.00000000       0.00000000 </v>
     <v>       0.00000000      30.00000000       0.00000000 </v>
     <v>       0.00000000       0.00000000      30.00000000 </v>
    </varray>
    <i name="volume">  27000.00000000 </i>
    <varray name="rec_basis" >
     <v>       0.03333333       0.00000000       0.00000000 </v>
     <v>       0.00000000       0.03333333       0.00000000 </v>
     <v>       0.00000000       0.00000000       0.03333333 </v>
    </varray>
   </crystal>
   <varray name="positions" >
    <v>       0.44576020       0.32826710       0.41691983 </v>
    <v>       0.67173288       0.55423978       0.41691983 </v>
    <v>       0.55423980       0.32826710       0.41691983 </v>
    <v>       0.32826712       0.55423978       0.41691983 </v>
    <v>       0.50000000       0.38250690       0.34021317 </v>
    <v>       0.50000000       0.38250690       0.65978680 </v>
    <v>       0.50000000       0.27609440       0.50000000 </v>
    <v>       0.27609443       0.49999998       0.50000000 </v>
    <v>       0.72390557       0.49999998       0.50000000 </v>
    <v>       0.50000000       0.72390555       0.50000000 </v>
    <v>       0.61195280       0.38804720       0.34167483 </v>
    <v>       0.61195280       0.38804720       0.65832513 </v>
    <v>       0.38804722       0.61195278       0.34167483 </v>
    <v>       0.38804722       0.61195278       0.65832513 </v>
    <v>       0.38804720       0.38804720       0.34167483 </v>
    <v>       0.38804720       0.38804720       0.65832513 </v>
    <v>       0.61195278       0.61195278       0.34167483 </v>
    <v>       0.61195278       0.61195278       0.65832513 </v>
    <v>       0.44576020       0.32826710       0.58308023 </v>
    <v>       0.67173288       0.55423978       0.58308023 </v>
    <v>       0.55791699       0.44208301       0.41809300 </v>
    <v>       0.32826705       0.44576024       0.41691983 </v>
    <v>       0.55423973       0.67173293       0.41691983 </v>
    <v>       0.55423980       0.32826710       0.58308023 </v>
    <v>       0.32826712       0.55423978       0.58308023 </v>
    <v>       0.67173295       0.44576024       0.41691983 </v>
    <v>       0.44576027       0.67173293       0.41691983 </v>
    <v>       0.44208301       0.44208301       0.41809300 </v>
    <v>       0.50000000       0.38416601       0.50000000 </v>
    <v>       0.61749315       0.50000005       0.34021317 </v>
    <v>       0.61749315       0.50000005       0.65978680 </v>
    <v>       0.38250685       0.50000005       0.34021317 </v>
    <v>       0.38250685       0.50000005       0.65978680 </v>
    <v>       0.38317830       0.38317830       0.50000000 </v>
    <v>       0.61682172       0.61682172       0.50000000 </v>
    <v>       0.61682170       0.38317830       0.50000000 </v>
    <v>       0.38317828       0.61682172       0.50000000 </v>
    <v>       0.50000000       0.50000000       0.33478917 </v>
    <v>       0.50000000       0.50000000       0.66521087 </v>
    <v>       0.32826705       0.44576024       0.58308023 </v>
    <v>       0.55423973       0.67173293       0.58308023 </v>
    <v>       0.55791699       0.44208301       0.58190703 </v>
    <v>       0.44208298       0.55791702       0.41809300 </v>
    <v>       0.44208301       0.44208301       0.58190703 </v>
    <v>       0.67173295       0.44576024       0.58308023 </v>
    <v>       0.44576027       0.67173293       0.58308023 </v>
    <v>       0.55791702       0.55791702       0.41809300 </v>
    <v>       0.38416599       0.50000002       0.50000000 </v>
    <v>       0.61583401       0.50000002       0.50000000 </v>
    <v>       0.50000000       0.61749319       0.34021317 </v>
    <v>       0.50000000       0.61749319       0.65978680 </v>
    <v>       0.50000000       0.50000000       0.50000000 </v>
    <v>       0.44208298       0.55791702       0.58190703 </v>
    <v>       0.55791702       0.55791702       0.58190703 </v>
    <v>       0.50000000       0.61583404       0.50000000 </v>
    <v>       0.48004350       0.71111780       0.62095627 </v>
    <v>       0.47696987       0.74363340       0.63958553 </v>
   </varray>
  </structure>
  <varray name="forces" >
   <v>       0.71038109       1.10922019       0.28873789 </v>
   <v>      -1.10736676      -0.73121548       0.27138928 </v>
   <v>      -0.71077273       1.10896409       0.28730263 </v>
   <v>       1.10252015      -0.75004654       0.25597103 </v>
   <v>       0.00054673       0.40836283       1.28534365 </v>
   <v>      -0.00112940       0.39161796      -1.29465717 </v>
   <v>      -0.00025227       1.52025318       0.00431316 </v>
   <v>       1.52062577      -0.00578032      -0.00807406 </v>
   <v>      -1.52264242      -0.00270221      -0.01049860 </v>
   <v>       0.00709899      -1.49424091      -0.06476228 </v>
   <v>      -0.75436224       0.76397831       1.07571191 </v>
   <v>      -0.76615734       0.75082364      -1.07859250 </v>
   <v>       0.75568489      -0.76618068       1.07069481 </v>
   <v>       0.71528954      -0.80805852      -1.06568454 </v>
   <v>       0.75227921       0.76598641       1.07604065 </v>
   <v>       0.76767956       0.74734173      -1.07993914 </v>
   <v>      -0.75112798      -0.77167646       1.07197978 </v>
   <v>      -0.74915809      -0.78799983      -1.09067362 </v>
   <v>       0.70538531       1.11914777      -0.27743696 </v>
   <v>      -1.11221605      -0.69612842      -0.28370107 </v>
   <v>       0.10993361      -0.11285528      -0.15713904 </v>
   <v>       1.10947394       0.71902983       0.28578036 </v>
   <v>      -0.71402493      -1.10230215       0.28249237 </v>
   <v>      -0.70734866       1.11985708      -0.27881355 </v>
   <v>       1.11101205      -0.69913650      -0.28346481 </v>
   <v>      -1.10748815       0.72019974       0.29158016 </v>
   <v>       0.71024037      -1.10367490       0.28259830 </v>
   <v>      -0.11322136      -0.10900808      -0.15606138 </v>
   <v>      -0.00043781      -0.22714662      -0.00573734 </v>
   <v>      -0.40595402       0.01055986       1.29141040 </v>
   <v>      -0.41229482       0.01274645      -1.27877454 </v>
   <v>       0.40273763       0.00286519       1.29370598 </v>
   <v>       0.40564593       0.01212313      -1.28158710 </v>
   <v>       0.82471523       0.82702450      -0.00156593 </v>
   <v>      -0.82536398      -0.83019707       0.01887451 </v>
   <v>      -0.82537839       0.82704946      -0.00064307 </v>
   <v>       0.85618442      -0.82438756       0.04409966 </v>
   <v>      -0.00077628      -0.00018357       1.17344134 </v>
   <v>       0.00842508       0.02122685      -1.17487033 </v>
   <v>       1.10898831       0.70827516      -0.29252615 </v>
   <v>      -1.01706467      -0.79848569      -0.03415265 </v>
   <v>       0.10971722      -0.12210269       0.15911259 </v>
   <v>      -0.11330295       0.11837243      -0.15441147 </v>
   <v>      -0.10903573      -0.13608164       0.16163587 </v>
   <v>      -1.10940971       0.70322286      -0.29389057 </v>
   <v>       1.05248267      -0.77183663       0.04870430 </v>
   <v>       0.12398353       0.10439266      -0.16645518 </v>
   <v>      -0.23184135       0.00856415       0.00470265 </v>
   <v>       0.23226187       0.00291058      -0.00193816 </v>
   <v>      -0.00161708      -0.40868733       1.28819181 </v>
   <v>       0.00839140      -0.37044013      -1.21103248 </v>
   <v>       0.00295766       0.01508648       0.01251804 </v>
   <v>      -0.13629382       0.05701238       0.11907584 </v>
   <v>       0.12633835       0.07971114       0.14623560 </v>
   <v>       0.00019765       0.15900480      -0.07376192 </v>
   <v>      -0.07650561      -4.90540796      -3.28880044 </v>
   <v>       0.04136642       4.42103231       2.79800146 </v>
  </varray>
  <varray name="stress" >
   <v>      -6.81772187       0.00124002      -0.01017420 </v>
   <v>       0.00124003      -6.51704917       0.12367399 </v>
   <v>      -0.01017422       0.12367404      -6.67673489 </v>
  </varray>
  <energy>
   <i name="e_fr_energy">   -175.04287450 </i>
   <i name="e_wo_entrp">   -175.01156246 </i>
   <i name="e_0_energy">     -0.12524813 </i>
  </energy>
  <time name="totalsc">24727.2024728.24</time>
  <eigenvalues>
   <array>
    <dimension dim="1">band</dimension>
    <dimension dim="2">kpoint</dimension>
    <dimension dim="3">spin</dimension>
    <field>eigene</field>
    <field>occ</field>
    <set>
     <set comment="spin 1">
      <set comment="kpoint 1">
       <r>  -28.4132    1.0000 </r>
       <r>  -13.3574    1.0000 </r>
       <r>  -11.1522    1.0000 </r>
       <r>  -10.9161    1.0000 </r>
       <r>  -10.4470    1.0000 </r>
       <r>   -6.6670    1.0000 </r>
       <r>   -6.3051    1.0000 </r>
       <r>   -6.2136    1.0000 </r>
       <r>   -6.1533    1.0000 </r>
       <r>   -6.1405    1.0000 </r>
       <r>   -6.1272    1.0000 </r>
       <r>   -5.8773    1.0000 </r>
       <r>   -5.8532    1.0000 </r>
       <r>   -5.8233    1.0000 </r>
       <r>   -5.7827    1.0000 </r>
       <r>   -5.7522    1.0000 </r>
       <r>   -5.7255    1.0000 </r>
       <r>   -5.7074    1.0000 </r>
       <r>   -5.6993    1.0000 </r>
       <r>   -5.6863    1.0000 </r>
       <r>   -5.6787    1.0000 </r>
       <r>   -5.6400    1.0000 </r>
       <r>   -5.6312    1.0000 </r>
       <r>   -5.6224    1.0000 </r>
       <r>   -5.6117    1.0000 </r>
       <r>   -5.5920    1.0000 </r>
       <r>   -5.5894    1.0000 </r>
       <r>   -5.5699    1.0000 </r>
       <r>   -5.5651    1.0000 </r>
       <r>   -5.5642    1.0000 </r>
       <r>   -5.5538    1.0000 </r>
       <r>   -5.5441    1.0000 </r>
       <r>   -5.5356    1.0000 </r>
       <r>   -5.5341    1.0000 </r>
       <r>   -5.5300    1.0000 </r>
       <r>   -5.5283    1.0000 </r>
       <r>   -5.5245    1.0000 </r>
       <r>   -5.5071    1.0000 </r>
       <r>   -5.5029    1.0000 </r>
       <r>   -5.4922    1.0000 </r>
       <r>   -5.4899    1.0000 </r>
       <r>   -5.4874    1.0000 </r>
       <r>   -5.4858    1.0000 </r>
       <r>   -5.4833    1.0000 </r>
       <r>   -5.4813    1.0000 </r>
       <r>   -5.4660    1.0000 </r>
       <r>   -5.4502    1.0000 </r>
       <r>   -5.4460    1.0000 </r>
       <r>   -5.4453    1.0000 </r>
       <r>   -5.4432    1.0000 </r>
       <r>   -5.4388    1.0000 </r>
       <r>   -5.4280    1.0000 </r>
       <r>   -5.4227    1.0000 </r>
       <r>   -5.4193    1.0000 </r>
       <r>   -5.4179    1.0000 </r>
       <r>   -5.4135    1.0000 </r>
       <r>   -5.4000    1.0000 </r>
       <r>   -5.3594    1.0000 </r>
       <r>   -5.3476    1.0000 </r>
       <r>   -5.3426    1.0000 </r>
       <r>   -5.3416    1.0000 </r>
       <r>   -5.3333    1.0000 </r>
       <r>   -5.3318    1.0000 </r>
       <r>   -5.3189    1.0000 </r>
       <r>   -5.3164    1.0000 </r>
       <r>   -5.3124    1.0000 </r>
       <r>   -5.3092    1.0000 </r>
       <r>   -5.2978    1.0000 </r>
       <r>   -5.2782    1.0000 </r>
       <r>   -5.2412    1.0000 </r>
       <r>   -5.2324    1.0000 </r>
       <r>   -5.2196    1.0000 </r>
       <r>   -5.2117    1.0000 </r>
       <r>   -5.2033    1.0000 </r>
       <r>   -5.2001    1.0000 </r>
       <r>   -5.1985    1.0000 </r>
       <r>   -5.1892    1.0000 </r>
       <r>   -5.1864    1.0000 </r>
       <r>   -5.1813    1.0000 </r>
       <r>   -5.1786    1.0000 </r>
       <r>   -5.1737    1.0000 </r>
       <r>   -5.1593    1.0000 </r>
       <r>   -5.1465    1.0000 </r>
       <r>   -5.1459    1.0000 </r>
       <r>   -5.1427    1.0000 </r>
       <r>   -5.1369    1.0000 </r>
       <r>   -5.1290    1.0000 </r>
       <r>   -5.1203    1.0000 </r>
       <r>   -5.1066    1.0000 </r>
       <r>   -5.0977    1.0000 </r>
       <r>   -5.0869    1.0000 </r>
       <r>   -5.0748    1.0000 </r>
       <r>   -5.0690    1.0000 </r>
       <r>   -5.0679    1.0000 </r>
       <r>   -5.0651    1.0000 </r>
       <r>   -5.0640    1.0000 </r>
       <r>   -5.0619    1.0000 </r>
       <r>   -5.0521    1.0000 </r>
       <r>   -5.0467    1.0000 </r>
       <r>   -5.0439    1.0000 </r>
       <r>   -5.0423    1.0000 </r>
       <r>   -5.0405    1.0000 </r>
       <r>   -5.0292    1.0000 </r>
       <r>   -5.0194    1.0000 </r>
       <r>   -5.0181    1.0000 </r>
       <r>   -5.0130    1.0000 </r>
       <r>   -5.0108    1.0000 </r>
       <r>   -5.0077    1.0000 </r>
       <r>   -5.0021    1.0000 </r>
       <r>   -4.9957    1.0000 </r>
       <r>   -4.9952    1.0000 </r>
       <r>   -4.9831    1.0000 </r>
       <r>   -4.9776    1.0000 </r>
       <r>   -4.9760    1.0000 </r>
       <r>   -4.9725    1.0000 </r>
       <r>   -4.9678    1.0000 </r>
       <r>   -4.9564    1.0000 </r>
       <r>   -4.9513    1.0000 </r>
       <r>   -4.9478    1.0000 </r>
       <r>   -4.9420    1.0000 </r>
       <r>   -4.9287    1.0000 </r>
       <r>   -4.9247    1.0000 </r>
       <r>   -4.9238    1.0000 </r>
       <r>   -4.9199    1.0000 </r>
       <r>   -4.9182    1.0000 </r>
       <r>   -4.9144    1.0000 </r>
       <r>   -4.8956    1.0000 </r>
       <r>   -4.8917    1.0000 </r>
       <r>   -4.8687    1.0000 </r>
       <r>   -4.8606    1.0000 </r>
       <r>   -4.8584    1.0000 </r>
       <r>   -4.8556    1.0000 </r>
       <r>   -4.8524    1.0000 </r>
       <r>   -4.8481    1.0000 </r>
       <r>   -4.8449    1.0000 </r>
       <r>   -4.8290    0.9999 </r>
       <r>   -4.8164    0.9999 </r>
       <r>   -4.8133    0.9999 </r>
       <r>   -4.7993    0.9999 </r>
       <r>   -4.7954    0.9999 </r>
       <r>   -4.7913    0.9998 </r>
       <r>   -4.7825    0.9998 </r>
       <r>   -4.7705    0.9997 </r>
       <r>   -4.7640    0.9997 </r>
       <r>   -4.7552    0.9996 </r>
       <r>   -4.7525    0.9996 </r>
       <r>   -4.7470    0.9995 </r>
       <r>   -4.7431    0.9995 </r>
       <r>   -4.7312    0.9994 </r>
       <r>   -4.7177    0.9992 </r>
       <r>   -4.7051    0.9989 </r>
       <r>   -4.7048    0.9989 </r>
       <r>   -4.6972    0.9988 </r>
       <r>   -4.6924    0.9987 </r>
       <r>   -4.6873    0.9985 </r>
       <r>   -4.6860    0.9985 </r>
       <r>   -4.6834    0.9984 </r>
       <r>   -4.6812    0.9984 </r>
       <r>   -4.6795    0.9983 </r>
       <r>   -4.6730    0.9981 </r>
       <r>   -4.6671    0.9980 </r>
       <r>   -4.6636    0.9979 </r>
       <r>   -4.6634    0.9978 </r>
       <r>   -4.6609    0.9978 </r>
       <r>   -4.6586    0.9977 </r>
       <r>   -4.6576    0.9977 </r>
       <r>   -4.6569    0.9976 </r>
       <r>   -4.6512    0.9974 </r>
       <r>   -4.6492    0.9974 </r>
       <r>   -4.6392    0.9970 </r>
       <r>   -4.6286    0.9966 </r>
       <r>   -4.6220    0.9964 </r>
       <r>   -4.6146    0.9961 </r>
       <r>   -4.6135    0.9960 </r>
       <r>   -4.6108    0.9959 </r>
       <r>   -4.6075    0.9958 </r>
       <r>   -4.6066    0.9958 </r>
       <r>   -4.6018    0.9956 </r>
       <r>   -4.6011    0.9956 </r>
       <r>   -4.5895    0.9953 </r>
       <r>   -4.5886    0.9953 </r>
       <r>   -4.5843    0.9952 </r>
       <r>   -4.5787    0.9951 </r>
       <r>   -4.5721    0.9951 </r>
       <r>   -4.5713    0.9951 </r>
       <r>   -4.5681    0.9951 </r>
       <r>   -4.5659    0.9951 </r>
       <r>   -4.5636    0.9951 </r>
       <r>   -4.5626    0.9951 </r>
       <r>   -4.5545    0.9953 </r>
       <r>   -4.5472    0.9955 </r>
       <r>   -4.5311    0.9966 </r>
       <r>   -4.5222    0.9976 </r>
       <r>   -4.5208    0.9977 </r>
       <r>   -4.5179    0.9981 </r>
       <r>   -4.5143    0.9986 </r>
       <r>   -4.5075    0.9997 </r>
       <r>   -4.5060    1.0000 </r>
       <r>   -4.4915    1.0031 </r>
       <r>   -4.4896    1.0036 </r>
       <r>   -4.4857    1.0046 </r>
       <r>   -4.4839    1.0051 </r>
       <r>   -4.4738    1.0082 </r>
       <r>   -4.4702    1.0094 </r>
       <r>   -4.4690    1.0098 </r>
       <r>   -4.4654    1.0111 </r>
       <r>   -4.4609    1.0128 </r>
       <r>   -4.4604    1.0130 </r>
       <r>   -4.4544    1.0154 </r>
       <r>   -4.4453    1.0192 </r>
       <r>   -4.4413    1.0211 </r>
       <r>   -4.4374    1.0228 </r>
       <r>   -4.4339    1.0245 </r>
       <r>   -4.4243    1.0290 </r>
       <r>   -4.4236    1.0294 </r>
       <r>   -4.4212    1.0305 </r>
       <r>   -4.4192    1.0315 </r>
       <r>   -4.4181    1.0320 </r>
       <r>   -4.4123    1.0348 </r>
       <r>   -4.4013    1.0399 </r>
       <r>   -4.3915    1.0440 </r>
       <r>   -4.3856    1.0462 </r>
       <r>   -4.3795    1.0481 </r>
       <r>   -4.3780    1.0486 </r>
       <r>   -4.3660    1.0511 </r>
       <r>   -4.3610    1.0515 </r>
       <r>   -4.3542    1.0515 </r>
       <r>   -4.3527    1.0514 </r>
       <r>   -4.3495    1.0510 </r>
       <r>   -4.3480    1.0508 </r>
       <r>   -4.3468    1.0506 </r>
       <r>   -4.3459    1.0504 </r>
       <r>   -4.3438    1.0498 </r>
       <r>   -4.3408    1.0489 </r>
       <r>   -4.3402    1.0487 </r>
       <r>   -4.3384    1.0481 </r>
       <r>   -4.3377    1.0478 </r>
       <r>   -4.3363    1.0472 </r>
       <r>   -4.3350    1.0466 </r>
       <r>   -4.3237    1.0395 </r>
       <r>   -4.3222    1.0383 </r>
       <r>   -4.3197    1.0362 </r>
       <r>   -4.3131    1.0296 </r>
       <r>   -4.3070    1.0224 </r>
       <r>   -4.3026    1.0163 </r>
       <r>   -4.3022    1.0157 </r>
       <r>   -4.2981    1.0094 </r>
       <r>   -4.2960    1.0060 </r>
       <r>   -4.2927    1.0003 </r>
       <r>   -4.2879    0.9912 </r>
       <r>   -4.2832    0.9815 </r>
       <r>   -4.2776    0.9689 </r>
       <r>   -4.2767    0.9669 </r>
       <r>   -4.2732    0.9582 </r>
       <r>   -4.2724    0.9561 </r>
       <r>   -4.2665    0.9404 </r>
       <r>   -4.2644    0.9344 </r>
       <r>   -4.2626    0.9291 </r>
       <r>   -4.2596    0.9201 </r>
       <r>   -4.2586    0.9170 </r>
       <r>   -4.2571    0.9124 </r>
       <r>   -4.2560    0.9090 </r>
       <r>   -4.2530    0.8992 </r>
       <r>   -4.2521    0.8963 </r>
       <r>   -4.2507    0.8913 </r>
       <r>   -4.2412    0.8573 </r>
       <r>   -4.2389    0.8488 </r>
       <r>   -4.2380    0.8452 </r>
       <r>   -4.2343    0.8306 </r>
       <r>   -4.2323    0.8225 </r>
       <r>   -4.2297    0.8121 </r>
       <r>   -4.2169    0.7566 </r>
       <r>   -4.2148    0.7467 </r>
       <r>   -4.2056    0.7035 </r>
       <r>   -4.1972    0.6622 </r>
       <r>   -4.1964    0.6583 </r>
       <r>   -4.1925    0.6389 </r>
       <r>   -4.1900    0.6261 </r>
       <r>   -4.1883    0.6170 </r>
       <r>   -4.1855    0.6029 </r>
       <r>   -4.1745    0.5451 </r>
       <r>   -4.1714    0.5291 </r>
       <r>   -4.1533    0.4333 </r>
       <r>   -4.1447    0.3886 </r>
       <r>   -4.1439    0.3844 </r>
       <r>   -4.1416    0.3726 </r>
       <r>   -4.1406    0.3676 </r>
       <r>   -4.1315    0.3220 </r>
       <r>   -4.1281    0.3051 </r>
       <r>   -3.9747   -0.0516 </r>
       <r>   -3.8481   -0.0052 </r>
       <r>   -3.8428   -0.0037 </r>
       <r>   -3.8284   -0.0005 </r>
       <r>   -3.7256    0.0042 </r>
       <r>   -3.5160    0.0001 </r>
       <r>   -3.5019    0.0001 </r>
       <r>   -3.3457    0.0000 </r>
       <r>   -3.0952    0.0000 </r>
       <r>   -3.0758    0.0000 </r>
       <r>   -3.0691    0.0000 </r>
       <r>   -3.0444    0.0000 </r>
       <r>   -3.0391    0.0000 </r>
       <r>   -2.9539    0.0000 </r>
       <r>   -2.9507    0.0000 </r>
       <r>   -2.7667    0.0000 </r>
       <r>   -2.5947    0.0000 </r>
       <r>   -2.5460    0.0000 </r>
       <r>   -2.5297    0.0000 </r>
       <r>   -2.3014    0.0000 </r>
       <r>   -2.1255    0.0000 </r>
       <r>   -2.1243    0.0000 </r>
       <r>   -2.0713    0.0000 </r>
       <r>   -2.0450    0.0000 </r>
       <r>   -2.0155    0.0000 </r>
       <r>   -1.9391    0.0000 </r>
       <r>   -1.8935    0.0000 </r>
       <r>   -1.8092    0.0000 </r>
       <r>   -1.6873    0.0000 </r>
       <r>   -1.6546    0.0000 </r>
       <r>   -1.6528    0.0000 </r>
       <r>   -1.6500    0.0000 </r>
       <r>   -1.6223    0.0000 </r>
       <r>   -1.5619    0.0000 </r>
       <r>   -1.3838    0.0000 </r>
       <r>   -1.2680    0.0000 </r>
       <r>   -1.1551    0.0000 </r>
       <r>   -1.1260    0.0000 </r>
       <r>   -1.0558    0.0000 </r>
       <r>   -0.9890    0.0000 </r>
       <r>   -0.9800    0.0000 </r>
       <r>   -0.9491    0.0000 </r>
       <r>   -0.9383    0.0000 </r>
       <r>   -0.9278    0.0000 </r>
       <r>   -0.9018    0.0000 </r>
       <r>   -0.8235    0.0000 </r>
       <r>   -0.7881    0.0000 </r>
      </set>
     </set>
    </set>
   </array>
  </eigenvalues>
  <separator name="orbital magnetization" >
   <v name="MAGDIPOLOUT">      0.00000000      0.00000000      0.00000000</v>
  </separator>
  <dos>
   <i name="efermi">     -4.16593491 </i>
   <total>
    <array>
     <dimension dim="1">gridpoints</dimension>
     <dimension dim="2">spin</dimension>
     <field>energy</field>
     <field>total</field>
     <field>integrated</field>
     <set>
      <set comment="spin 1">
       <r>   -30.4132     0.0000     0.0000 </r>
       <r>   -30.3078     0.0000     0.0000 </r>
       <r>   -30.2024     0.0000     0.0000 </r>
       <r>   -30.0970     0.0000     0.0000 </r>
       <r>   -29.9916     0.0000     0.0000 </r>
       <r>   -29.8861     0.0000     0.0000 </r>
       <r>   -29.7807     0.0000     0.0000 </r>
       <r>   -29.6753     0.0000     0.0000 </r>
       <r>   -29.5699     0.0000     0.0000 </r>
       <r>   -29.4645     0.0000     0.0000 </r>
       <r>   -29.3590     0.0000     0.0000 </r>
       <r>   -29.2536     0.0000     0.0000 </r>
       <r>   -29.1482     0.0001     0.0000 </r>
       <r>   -29.0428     0.0026     0.0003 </r>
       <r>   -28.9374     0.0238     0.0028 </r>
       <r>   -28.8320     0.0643     0.0096 </r>
       <r>   -28.7265    -0.2140    -0.0130 </r>
       <r>   -28.6211    -0.8184    -0.0993 </r>
       <r>   -28.5157     1.9728     0.1087 </r>
       <r>   -28.4103     8.7485     1.0310 </r>
       <r>   -28.3049     8.4504     1.9218 </r>
       <r>   -28.1995     1.6541     2.0962 </r>
       <r>   -28.0940    -0.8211     2.0096 </r>
       <r>   -27.9886    -0.1796     1.9907 </r>
       <r>   -27.8832     0.0646     1.9975 </r>
       <r>   -27.7778     0.0216     1.9997 </r>
       <r>   -27.6724     0.0023     2.0000 </r>
       <r>   -27.5670     0.0001     2.0000 </r>
       <r>   -27.4615     0.0000     2.0000 </r>
       <r>   -27.3561     0.0000     2.0000 </r>
       <r>   -27.2507     0.0000     2.0000 </r>
       <r>   -27.1453     0.0000     2.0000 </r>
       <r>   -27.0399     0.0000     2.0000 </r>
       <r>   -26.9345     0.0000     2.0000 </r>
       <r>   -26.8290     0.0000     2.0000 </r>
       <r>   -26.7236     0.0000     2.0000 </r>
       <r>   -26.6182     0.0000     2.0000 </r>
       <r>   -26.5128     0.0000     2.0000 </r>
       <r>   -26.4074     0.0000     2.0000 </r>
       <r>   -26.3020     0.0000     2.0000 </r>
       <r>   -26.1965     0.0000     2.0000 </r>
       <r>   -26.0911     0.0000     2.0000 </r>
       <r>   -25.9857     0.0000     2.0000 </r>
       <r>   -25.8803     0.0000     2.0000 </r>
       <r>   -25.7749     0.0000     2.0000 </r>
       <r>   -25.6694     0.0000     2.0000 </r>
       <r>   -25.5640     0.0000     2.0000 </r>
       <r>   -25.4586     0.0000     2.0000 </r>
       <r>   -25.3532     0.0000     2.0000 </r>
       <r>   -25.2478     0.0000     2.0000 </r>
       <r>   -25.1424     0.0000     2.0000 </r>
       <r>   -25.0369     0.0000     2.0000 </r>
       <r>   -24.9315     0.0000     2.0000 </r>
       <r>   -24.8261     0.0000     2.0000 </r>
       <r>   -24.7207     0.0000     2.0000 </r>
       <r>   -24.6153     0.0000     2.0000 </r>
       <r>   -24.5099     0.0000     2.0000 </r>
       <r>   -24.4044     0.0000     2.0000 </r>
       <r>   -24.2990     0.0000     2.0000 </r>
       <r>   -24.1936     0.0000     2.0000 </r>
       <r>   -24.0882     0.0000     2.0000 </r>
       <r>   -23.9828     0.0000     2.0000 </r>
       <r>   -23.8774     0.0000     2.0000 </r>
       <r>   -23.7719     0.0000     2.0000 </r>
       <r>   -23.6665     0.0000     2.0000 </r>
       <r>   -23.5611     0.0000     2.0000 </r>
       <r>   -23.4557     0.0000     2.0000 </r>
       <r>   -23.3503     0.0000     2.0000 </r>
       <r>   -23.2449     0.0000     2.0000 </r>
       <r>   -23.1394     0.0000     2.0000 </r>
       <r>   -23.0340     0.0000     2.0000 </r>
       <r>   -22.9286     0.0000     2.0000 </r>
       <r>   -22.8232     0.0000     2.0000 </r>
       <r>   -22.7178     0.0000     2.0000 </r>
       <r>   -22.6123     0.0000     2.0000 </r>
       <r>   -22.5069     0.0000     2.0000 </r>
       <r>   -22.4015     0.0000     2.0000 </r>
       <r>   -22.2961     0.0000     2.0000 </r>
       <r>   -22.1907     0.0000     2.0000 </r>
       <r>   -22.0853     0.0000     2.0000 </r>
       <r>   -21.9798     0.0000     2.0000 </r>
       <r>   -21.8744     0.0000     2.0000 </r>
       <r>   -21.7690     0.0000     2.0000 </r>
       <r>   -21.6636     0.0000     2.0000 </r>
       <r>   -21.5582     0.0000     2.0000 </r>
       <r>   -21.4528     0.0000     2.0000 </r>
       <r>   -21.3473     0.0000     2.0000 </r>
       <r>   -21.2419     0.0000     2.0000 </r>
       <r>   -21.1365     0.0000     2.0000 </r>
       <r>   -21.0311     0.0000     2.0000 </r>
       <r>   -20.9257     0.0000     2.0000 </r>
       <r>   -20.8203     0.0000     2.0000 </r>
       <r>   -20.7148     0.0000     2.0000 </r>
       <r>   -20.6094     0.0000     2.0000 </r>
       <r>   -20.5040     0.0000     2.0000 </r>
       <r>   -20.3986     0.0000     2.0000 </r>
       <r>   -20.2932     0.0000     2.0000 </r>
       <r>   -20.1878     0.0000     2.0000 </r>
       <r>   -20.0823     0.0000     2.0000 </r>
       <r>   -19.9769     0.0000     2.0000 </r>
       <r>   -19.8715     0.0000     2.0000 </r>
       <r>   -19.7661     0.0000     2.0000 </r>
       <r>   -19.6607     0.0000     2.0000 </r>
       <r>   -19.5552     0.0000     2.0000 </r>
       <r>   -19.4498     0.0000     2.0000 </r>
       <r>   -19.3444     0.0000     2.0000 </r>
       <r>   -19.2390     0.0000     2.0000 </r>
       <r>   -19.1336     0.0000     2.0000 </r>
       <r>   -19.0282     0.0000     2.0000 </r>
       <r>   -18.9227     0.0000     2.0000 </r>
       <r>   -18.8173     0.0000     2.0000 </r>
       <r>   -18.7119     0.0000     2.0000 </r>
       <r>   -18.6065     0.0000     2.0000 </r>
       <r>   -18.5011     0.0000     2.0000 </r>
       <r>   -18.3957     0.0000     2.0000 </r>
       <r>   -18.2902     0.0000     2.0000 </r>
       <r>   -18.1848     0.0000     2.0000 </r>
       <r>   -18.0794     0.0000     2.0000 </r>
       <r>   -17.9740     0.0000     2.0000 </r>
       <r>   -17.8686     0.0000     2.0000 </r>
       <r>   -17.7632     0.0000     2.0000 </r>
       <r>   -17.6577     0.0000     2.0000 </r>
       <r>   -17.5523     0.0000     2.0000 </r>
       <r>   -17.4469     0.0000     2.0000 </r>
       <r>   -17.3415     0.0000     2.0000 </r>
       <r>   -17.2361     0.0000     2.0000 </r>
       <r>   -17.1307     0.0000     2.0000 </r>
       <r>   -17.0252     0.0000     2.0000 </r>
       <r>   -16.9198     0.0000     2.0000 </r>
       <r>   -16.8144     0.0000     2.0000 </r>
       <r>   -16.7090     0.0000     2.0000 </r>
       <r>   -16.6036     0.0000     2.0000 </r>
       <r>   -16.4982     0.0000     2.0000 </r>
       <r>   -16.3927     0.0000     2.0000 </r>
       <r>   -16.2873     0.0000     2.0000 </r>
       <r>   -16.1819     0.0000     2.0000 </r>
       <r>   -16.0765     0.0000     2.0000 </r>
       <r>   -15.9711     0.0000     2.0000 </r>
       <r>   -15.8656     0.0000     2.0000 </r>
       <r>   -15.7602     0.0000     2.0000 </r>
       <r>   -15.6548     0.0000     2.0000 </r>
       <r>   -15.5494     0.0000     2.0000 </r>
       <r>   -15.4440     0.0000     2.0000 </r>
       <r>   -15.3386     0.0000     2.0000 </r>
       <r>   -15.2331     0.0000     2.0000 </r>
       <r>   -15.1277     0.0000     2.0000 </r>
       <r>   -15.0223     0.0000     2.0000 </r>
       <r>   -14.9169     0.0000     2.0000 </r>
       <r>   -14.8115     0.0000     2.0000 </r>
       <r>   -14.7061     0.0000     2.0000 </r>
       <r>   -14.6006     0.0000     2.0000 </r>
       <r>   -14.4952     0.0000     2.0000 </r>
       <r>   -14.3898     0.0000     2.0000 </r>
       <r>   -14.2844     0.0000     2.0000 </r>
       <r>   -14.1790     0.0000     2.0000 </r>
       <r>   -14.0736     0.0002     2.0000 </r>
       <r>   -13.9681     0.0041     2.0005 </r>
       <r>   -13.8627     0.0319     2.0038 </r>
       <r>   -13.7573     0.0571     2.0098 </r>
       <r>   -13.6519    -0.3397     1.9740 </r>
       <r>   -13.5465    -0.7320     1.8969 </r>
       <r>   -13.4411     3.1098     2.2247 </r>
       <r>   -13.3356     9.5170     3.2280 </r>
       <r>   -13.2302     7.3433     4.0021 </r>
       <r>   -13.1248     0.7598     4.0822 </r>
       <r>   -13.0194    -0.7718     4.0008 </r>
       <r>   -12.9140    -0.0855     3.9918 </r>
       <r>   -12.8085     0.0610     3.9982 </r>
       <r>   -12.7031     0.0154     3.9998 </r>
       <r>   -12.5977     0.0014     4.0000 </r>
       <r>   -12.4923     0.0001     4.0000 </r>
       <r>   -12.3869     0.0000     4.0000 </r>
       <r>   -12.2815     0.0000     4.0000 </r>
       <r>   -12.1760     0.0000     4.0000 </r>
       <r>   -12.0706     0.0000     4.0000 </r>
       <r>   -11.9652     0.0000     4.0000 </r>
       <r>   -11.8598     0.0003     4.0000 </r>
       <r>   -11.7544     0.0051     4.0006 </r>
       <r>   -11.6490     0.0361     4.0044 </r>
       <r>   -11.5435     0.0525     4.0099 </r>
       <r>   -11.4381    -0.3783     3.9700 </r>
       <r>   -11.3327    -0.5816     3.9087 </r>
       <r>   -11.2273     3.4485     4.2722 </r>
       <r>   -11.1219     8.9447     5.2152 </r>
       <r>   -11.0165     8.8850     6.1518 </r>
       <r>   -10.9110     9.3254     7.1349 </r>
       <r>   -10.8056     7.5956     7.9356 </r>
       <r>   -10.7002     0.8410     8.0242 </r>
       <r>   -10.5948    -0.7395     7.9463 </r>
       <r>   -10.4894     5.7999     8.5577 </r>
       <r>   -10.3840    10.0356     9.6156 </r>
       <r>   -10.2785     4.5225    10.0923 </r>
       <r>   -10.1731    -0.4640    10.0434 </r>
       <r>   -10.0677    -0.4948     9.9913 </r>
       <r>    -9.9623     0.0338     9.9948 </r>
       <r>    -9.8569     0.0420     9.9993 </r>
       <r>    -9.7515     0.0066    10.0000 </r>
       <r>    -9.6460     0.0004    10.0000 </r>
       <r>    -9.5406     0.0000    10.0000 </r>
       <r>    -9.4352     0.0000    10.0000 </r>
       <r>    -9.3298     0.0000    10.0000 </r>
       <r>    -9.2244     0.0000    10.0000 </r>
       <r>    -9.1189     0.0000    10.0000 </r>
       <r>    -9.0135     0.0000    10.0000 </r>
       <r>    -8.9081     0.0000    10.0000 </r>
       <r>    -8.8027     0.0000    10.0000 </r>
       <r>    -8.6973     0.0000    10.0000 </r>
       <r>    -8.5919     0.0000    10.0000 </r>
       <r>    -8.4864     0.0000    10.0000 </r>
       <r>    -8.3810     0.0000    10.0000 </r>
       <r>    -8.2756     0.0000    10.0000 </r>
       <r>    -8.1702     0.0000    10.0000 </r>
       <r>    -8.0648     0.0000    10.0000 </r>
       <r>    -7.9594     0.0000    10.0000 </r>
       <r>    -7.8539     0.0000    10.0000 </r>
       <r>    -7.7485     0.0000    10.0000 </r>
       <r>    -7.6431     0.0000    10.0000 </r>
       <r>    -7.5377     0.0000    10.0000 </r>
       <r>    -7.4323     0.0000    10.0000 </r>
       <r>    -7.3269     0.0012    10.0001 </r>
       <r>    -7.2214     0.0139    10.0016 </r>
       <r>    -7.1160     0.0590    10.0078 </r>
       <r>    -7.0106    -0.0622    10.0013 </r>
       <r>    -6.9052    -0.7379     9.9235 </r>
       <r>    -6.7998     0.5824     9.9849 </r>
       <r>    -6.6944     7.1137    10.7348 </r>
       <r>    -6.5889     9.4669    11.7327 </r>
       <r>    -6.4835     2.1350    11.9578 </r>
       <r>    -6.3781     0.6197    12.0231 </r>
       <r>    -6.2727    16.2652    13.7378 </r>
       <r>    -6.1673    37.4999    17.6909 </r>
       <r>    -6.0618    32.6410    21.1318 </r>
       <r>    -5.9564    11.8625    22.3823 </r>
       <r>    -5.8510    22.8654    24.7928 </r>
       <r>    -5.7456    61.1708    31.2412 </r>
       <r>    -5.6402   125.9331    44.5167 </r>
       <r>    -5.5348   232.5681    69.0334 </r>
       <r>    -5.4293   292.7206    99.8912 </r>
       <r>    -5.3239   244.2485   125.6392 </r>
       <r>    -5.2185   208.9123   147.6621 </r>
       <r>    -5.1131   271.8690   176.3218 </r>
       <r>    -5.0077   350.9560   213.3186 </r>
       <r>    -4.9023   337.3232   248.8783 </r>
       <r>    -4.7968   285.5085   278.9758 </r>
       <r>    -4.6914   336.2099   314.4181 </r>
       <r>    -4.5860   421.0766   358.8068 </r>
       <r>    -4.4806   426.8210   403.8011 </r>
       <r>    -4.3752   469.3604   453.2797 </r>
       <r>    -4.2698   558.8084   512.1878 </r>
       <r>    -4.1643   458.5086   560.5225 </r>
       <r>    -4.0589   180.3616   579.5357 </r>
       <r>    -3.9535    13.5003   580.9588 </r>
       <r>    -3.8481    15.2872   582.5704 </r>
       <r>    -3.7427    33.2690   586.0775 </r>
       <r>    -3.6373    18.4535   588.0228 </r>
       <r>    -3.5318    14.8940   589.5929 </r>
       <r>    -3.4264    20.9644   591.8029 </r>
       <r>    -3.3210    12.8653   593.1591 </r>
       <r>    -3.2156     5.0762   593.6942 </r>
       <r>    -3.1102    28.0606   596.6523 </r>
       <r>    -3.0047    58.1313   602.7804 </r>
       <r>    -2.8993    43.9942   607.4181 </r>
       <r>    -2.7939    13.9817   608.8920 </r>
       <r>    -2.6885     9.0696   609.8481 </r>
       <r>    -2.5831    22.7918   612.2508 </r>
       <r>    -2.4777    27.0108   615.0982 </r>
       <r>    -2.3722    12.6390   616.4305 </r>
       <r>    -2.2668     6.4518   617.1107 </r>
       <r>    -2.1614    20.8853   619.3123 </r>
       <r>    -2.0560    44.0173   623.9525 </r>
       <r>    -1.9506    45.9398   628.7954 </r>
       <r>    -1.8452    28.5755   631.8077 </r>
       <r>    -1.7397    29.4517   634.9124 </r>
       <r>    -1.6343    51.7774   640.3707 </r>
       <r>    -1.5289    45.3881   645.1553 </r>
       <r>    -1.4235    16.7092   646.9168 </r>
       <r>    -1.3181    10.3952   648.0126 </r>
       <r>    -1.2127    17.5282   649.8604 </r>
       <r>    -1.1072    28.6816   652.8839 </r>
       <r>    -1.0018    51.8337   658.3481 </r>
       <r>    -0.8964    68.2243   665.5401 </r>
       <r>    -0.7910    48.5519   670.6583 </r>
       <r>    -0.6856    14.9509   672.2344 </r>
       <r>    -0.5802    -0.9310   672.1362 </r>
       <r>    -0.4747    -1.5536   671.9725 </r>
       <r>    -0.3693     0.0342   671.9761 </r>
       <r>    -0.2639     0.1816   671.9952 </r>
       <r>    -0.1585     0.0414   671.9996 </r>
       <r>    -0.0531     0.0039   672.0000 </r>
       <r>     0.0523     0.0002   672.0000 </r>
       <r>     0.1578     0.0000   672.0000 </r>
       <r>     0.2632     0.0000   672.0000 </r>
       <r>     0.3686     0.0000   672.0000 </r>
       <r>     0.4740     0.0000   672.0000 </r>
       <r>     0.5794     0.0000   672.0000 </r>
       <r>     0.6849     0.0000   672.0000 </r>
       <r>     0.7903     0.0000   672.0000 </r>
       <r>     0.8957     0.0000   672.0000 </r>
       <r>     1.0011     0.0000   672.0000 </r>
       <r>     1.1065     0.0000   672.0000 </r>
       <r>     1.2119     0.0000   672.0000 </r>
      </set>
     </set>
    </array>
   </total>
  </dos>
 </calculation>
 <structure name="finalpos" >
  <crystal>
   <varray name="basis" >
    <v>      30.00000000       0.00000000       0.00000000 </v>
    <v>       0.00000000      30.00000000       0.00000000 </v>
    <v>       0.00000000       0.00000000      30.00000000 </v>
   </varray>
   <i name="volume">  27000.00000000 </i>
   <varray name="rec_basis" >
    <v>       0.03333333       0.00000000       0.00000000 </v>
    <v>       0.00000000       0.03333333       0.00000000 </v>
    <v>       0.00000000       0.00000000       0.03333333 </v>
   </varray>
  </crystal>
  <varray name="positions" >
   <v>       0.44576020       0.32826710       0.41691983 </v>
   <v>       0.67173288       0.55423978       0.41691983 </v>
   <v>       0.55423980       0.32826710       0.41691983 </v>
   <v>       0.32826712       0.55423978       0.41691983 </v>
   <v>       0.50000000       0.38250690       0.34021317 </v>
   <v>       0.50000000       0.38250690       0.65978680 </v>
   <v>       0.50000000       0.27609440       0.50000000 </v>
   <v>       0.27609443       0.49999998       0.50000000 </v>
   <v>       0.72390557       0.49999998       0.50000000 </v>
   <v>       0.50000000       0.72390555       0.50000000 </v>
   <v>       0.61195280       0.38804720       0.34167483 </v>
   <v>       0.61195280       0.38804720       0.65832513 </v>
   <v>       0.38804722       0.61195278       0.34167483 </v>
   <v>       0.38804722       0.61195278       0.65832513 </v>
   <v>       0.38804720       0.38804720       0.34167483 </v>
   <v>       0.38804720       0.38804720       0.65832513 </v>
   <v>       0.61195278       0.61195278       0.34167483 </v>
   <v>       0.61195278       0.61195278       0.65832513 </v>
   <v>       0.44576020       0.32826710       0.58308023 </v>
   <v>       0.67173288       0.55423978       0.58308023 </v>
   <v>       0.55791699       0.44208301       0.41809300 </v>
   <v>       0.32826705       0.44576024       0.41691983 </v>
   <v>       0.55423973       0.67173293       0.41691983 </v>
   <v>       0.55423980       0.32826710       0.58308023 </v>
   <v>       0.32826712       0.55423978       0.58308023 </v>
   <v>       0.67173295       0.44576024       0.41691983 </v>
   <v>       0.44576027       0.67173293       0.41691983 </v>
   <v>       0.44208301       0.44208301       0.41809300 </v>
   <v>       0.50000000       0.38416601       0.50000000 </v>
   <v>       0.61749315       0.50000005       0.34021317 </v>
   <v>       0.61749315       0.50000005       0.65978680 </v>
   <v>       0.38250685       0.50000005       0.34021317 </v>
   <v>       0.38250685       0.50000005       0.65978680 </v>
   <v>       0.38317830       0.38317830       0.50000000 </v>
   <v>       0.61682172       0.61682172       0.50000000 </v>
   <v>       0.61682170       0.38317830       0.50000000 </v>
   <v>       0.38317828       0.61682172       0.50000000 </v>
   <v>       0.50000000       0.50000000       0.33478917 </v>
   <v>       0.50000000       0.50000000       0.66521087 </v>
   <v>       0.32826705       0.44576024       0.58308023 </v>
   <v>       0.55423973       0.67173293       0.58308023 </v>
   <v>       0.55791699       0.44208301       0.58190703 </v>
   <v>       0.44208298       0.55791702       0.41809300 </v>
   <v>       0.44208301       0.44208301       0.58190703 </v>
   <v>       0.67173295       0.44576024       0.58308023 </v>
   <v>       0.44576027       0.67173293       0.58308023 </v>
   <v>       0.55791702       0.55791702       0.41809300 </v>
   <v>       0.38416599       0.50000002       0.50000000 </v>
   <v>       0.61583401       0.50000002       0.50000000 </v>
   <v>       0.50000000       0.61749319       0.34021317 </v>
   <v>       0.50000000       0.61749319       0.65978680 </v>
   <v>       0.50000000       0.50000000       0.50000000 </v>
   <v>       0.44208298       0.55791702       0.58190703 </v>
   <v>       0.55791702       0.55791702       0.58190703 </v>
   <v>       0.50000000       0.61583404       0.50000000 </v>
   <v>       0.48004350       0.71111780       0.62095627 </v>
   <v>       0.47696987       0.74363340       0.63958553 </v>
  </varray>
  <varray name="selective"  type="logical" >
   <v type="logical" >  F  F  F </v>
   <v type="logical" >  F  F  F </v>
   <v type="logical" >  F  F  F </v>
   <v type="logical" >  F  F  F </v>
   <v type="logical" >  F  F  F </v>
   <v type="logical" >  F  F  F </v>
   <v type="logical" >  F  F  F </v>
   <v type="logical" >  F  F  F </v>
   <v type="logical" >  F  F  F </v>
   <v type="logical" >  F  F  F </v>
   <v type="logical" >  F  F  F </v>
   <v type="logical" >  F  F  F </v>
   <v type="logical" >  F  F  F </v>
   <v type="logical" >  F  F  F </v>
   <v type="logical" >  F  F  F </v>
   <v type="logical" >  F  F  F </v>
   <v type="logical" >  F  F  F </v>
   <v type="logical" >  F  F  F </v>
   <v type="logical" >  F  F  F </v>
   <v type="logical" >  F  F  F </v>
   <v type="logical" >  F  F  F </v>
   <v type="logical" >  F  F  F </v>
   <v type="logical" >  F  F  F </v>
   <v type="logical" >  F  F  F </v>
   <v type="logical" >  F  F  F </v>
   <v type="logical" >  F  F  F </v>
   <v type="logical" >  F  F  F </v>
   <v type="logical" >  F  F  F </v>
   <v type="logical" >  F  F  F </v>
   <v type="logical" >  F  F  F </v>
   <v type="logical" >  F  F  F </v>
   <v type="logical" >  F  F  F </v>
   <v type="logical" >  F  F  F </v>
   <v type="logical" >  F  F  F </v>
   <v type="logical" >  F  F  F </v>
   <v type="logical" >  F  F  F </v>
   <v type="logical" >  F  F  F </v>
   <v type="logical" >  F  F  F </v>
   <v type="logical" >  F  F  F </v>
   <v type="logical" >  F  F  F </v>
   <v type="logical" >  F  F  F </v>
   <v type="logical" >  F  F  F </v>
   <v type="logical" >  F  F  F </v>
   <v type="logical" >  F  F  F </v>
   <v type="logical" >  F  F  F </v>
   <v type="logical" >  F  F  F </v>
   <v type="logical" >  F  F  F </v>
   <v type="logical" >  F  F  F </v>
   <v type="logical" >  F  F  F </v>
   <v type="logical" >  F  F  F </v>
   <v type="logical" >  F  F  F </v>
   <v type="logical" >  F  F  F </v>
   <v type="logical" >  F  F  F </v>
   <v type="logical" >  F  F  F </v>
   <v type="logical" >  F  F  F </v>
   <v type="logical" >  F  F  F </v>
   <v type="logical" >  F  F  F </v>
  </varray>
  <nose>
   <v>      -3.00000000       0.00000000       0.00010000       0.00010000 </v>
  </nose>
 </structure>
</modeling>
