  57  57   0   0
  0.4736842E+03  0.3000000E-08  0.3000000E-08  0.3000000E-08  0.5000000E-15
  1.000000000000000E-004
  CAR 
 6_Pd100_top_free_z(O)                   
      1.38191329    -30.63328462  301     -4.16648585      1.00000000
    -30.633  0.0000E+00  0.0000E+00
    -30.527  0.0000E+00  0.0000E+00
    -30.420  0.0000E+00  0.0000E+00
    -30.313  0.3424E-27  0.3654E-28
    -30.206  0.1640E-23  0.1750E-24
    -30.100  0.4376E-20  0.4672E-21
    -29.993  0.6488E-17  0.6928E-18
    -29.886  0.5324E-14  0.5688E-15
    -29.780  0.2412E-11  0.2579E-12
    -29.673  0.5969E-09  0.6396E-10
    -29.566  0.8007E-07  0.8609E-08
    -29.459  0.5733E-05  0.6204E-06
    -29.353  0.2134E-03  0.2339E-04
    -29.246  0.3923E-02  0.4421E-03
    -29.139  0.3133E-01  0.3786E-02
    -29.033  0.5667E-01  0.9834E-02
    -28.926 -0.3499E+00 -0.2751E-01
    -28.819 -0.7039E+00 -0.1026E+00
    -28.712  0.3370E+01  0.2570E+00
    -28.606  0.9661E+01  0.1288E+01
    -28.499  0.6914E+01  0.2026E+01
    -28.392  0.4569E+00  0.2075E+01
    -28.286 -0.7227E+00  0.1997E+01
    -28.179 -0.4536E-01  0.1993E+01
    -28.072  0.5641E-01  0.1999E+01
    -27.965  0.1203E-01  0.2000E+01
    -27.859  0.9534E-03  0.2000E+01
    -27.752  0.3567E-04  0.2000E+01
    -27.645  0.6800E-06  0.2000E+01
    -27.538  0.6845E-08  0.2000E+01
    -27.432  0.3710E-10  0.2000E+01
    -27.325  0.1103E-12  0.2000E+01
    -27.218  0.0000E+00  0.2000E+01
    -27.112  0.0000E+00  0.2000E+01
    -27.005  0.0000E+00  0.2000E+01
    -26.898  0.0000E+00  0.2000E+01
    -26.791  0.0000E+00  0.2000E+01
    -26.685  0.0000E+00  0.2000E+01
    -26.578  0.0000E+00  0.2000E+01
    -26.471  0.0000E+00  0.2000E+01
    -26.365  0.0000E+00  0.2000E+01
    -26.258  0.0000E+00  0.2000E+01
    -26.151  0.0000E+00  0.2000E+01
    -26.044  0.0000E+00  0.2000E+01
    -25.938  0.0000E+00  0.2000E+01
    -25.831  0.0000E+00  0.2000E+01
    -25.724  0.0000E+00  0.2000E+01
    -25.618  0.0000E+00  0.2000E+01
    -25.511  0.0000E+00  0.2000E+01
    -25.404  0.0000E+00  0.2000E+01
    -25.297  0.0000E+00  0.2000E+01
    -25.191  0.0000E+00  0.2000E+01
    -25.084  0.0000E+00  0.2000E+01
    -24.977  0.0000E+00  0.2000E+01
    -24.871  0.0000E+00  0.2000E+01
    -24.764  0.0000E+00  0.2000E+01
    -24.657  0.0000E+00  0.2000E+01
    -24.550  0.0000E+00  0.2000E+01
    -24.444  0.0000E+00  0.2000E+01
    -24.337  0.0000E+00  0.2000E+01
    -24.230  0.0000E+00  0.2000E+01
    -24.124  0.0000E+00  0.2000E+01
    -24.017  0.0000E+00  0.2000E+01
    -23.910  0.0000E+00  0.2000E+01
    -23.803  0.0000E+00  0.2000E+01
    -23.697  0.0000E+00  0.2000E+01
    -23.590  0.0000E+00  0.2000E+01
    -23.483  0.0000E+00  0.2000E+01
    -23.377  0.0000E+00  0.2000E+01
    -23.270  0.0000E+00  0.2000E+01
    -23.163  0.0000E+00  0.2000E+01
    -23.056  0.0000E+00  0.2000E+01
    -22.950  0.0000E+00  0.2000E+01
    -22.843  0.0000E+00  0.2000E+01
    -22.736  0.0000E+00  0.2000E+01
    -22.629  0.0000E+00  0.2000E+01
    -22.523  0.0000E+00  0.2000E+01
    -22.416  0.0000E+00  0.2000E+01
    -22.309  0.0000E+00  0.2000E+01
    -22.203  0.0000E+00  0.2000E+01
    -22.096  0.0000E+00  0.2000E+01
    -21.989  0.0000E+00  0.2000E+01
    -21.882  0.0000E+00  0.2000E+01
    -21.776  0.0000E+00  0.2000E+01
    -21.669  0.0000E+00  0.2000E+01
    -21.562  0.0000E+00  0.2000E+01
    -21.456  0.0000E+00  0.2000E+01
    -21.349  0.0000E+00  0.2000E+01
    -21.242  0.0000E+00  0.2000E+01
    -21.135  0.0000E+00  0.2000E+01
    -21.029  0.0000E+00  0.2000E+01
    -20.922  0.0000E+00  0.2000E+01
    -20.815  0.0000E+00  0.2000E+01
    -20.709  0.0000E+00  0.2000E+01
    -20.602  0.0000E+00  0.2000E+01
    -20.495  0.0000E+00  0.2000E+01
    -20.388  0.0000E+00  0.2000E+01
    -20.282  0.0000E+00  0.2000E+01
    -20.175  0.0000E+00  0.2000E+01
    -20.068  0.0000E+00  0.2000E+01
    -19.962  0.0000E+00  0.2000E+01
    -19.855  0.0000E+00  0.2000E+01
    -19.748  0.0000E+00  0.2000E+01
    -19.641  0.0000E+00  0.2000E+01
    -19.535  0.0000E+00  0.2000E+01
    -19.428  0.0000E+00  0.2000E+01
    -19.321  0.0000E+00  0.2000E+01
    -19.215  0.0000E+00  0.2000E+01
    -19.108  0.0000E+00  0.2000E+01
    -19.001  0.0000E+00  0.2000E+01
    -18.894  0.0000E+00  0.2000E+01
    -18.788  0.0000E+00  0.2000E+01
    -18.681  0.0000E+00  0.2000E+01
    -18.574  0.0000E+00  0.2000E+01
    -18.468  0.0000E+00  0.2000E+01
    -18.361  0.0000E+00  0.2000E+01
    -18.254  0.0000E+00  0.2000E+01
    -18.147  0.0000E+00  0.2000E+01
    -18.041  0.0000E+00  0.2000E+01
    -17.934  0.0000E+00  0.2000E+01
    -17.827  0.0000E+00  0.2000E+01
    -17.720  0.0000E+00  0.2000E+01
    -17.614  0.0000E+00  0.2000E+01
    -17.507  0.0000E+00  0.2000E+01
    -17.400  0.0000E+00  0.2000E+01
    -17.294  0.0000E+00  0.2000E+01
    -17.187  0.0000E+00  0.2000E+01
    -17.080  0.0000E+00  0.2000E+01
    -16.973  0.0000E+00  0.2000E+01
    -16.867  0.0000E+00  0.2000E+01
    -16.760  0.0000E+00  0.2000E+01
    -16.653  0.0000E+00  0.2000E+01
    -16.547  0.0000E+00  0.2000E+01
    -16.440  0.0000E+00  0.2000E+01
    -16.333  0.0000E+00  0.2000E+01
    -16.226  0.0000E+00  0.2000E+01
    -16.120  0.0000E+00  0.2000E+01
    -16.013  0.0000E+00  0.2000E+01
    -15.906  0.0000E+00  0.2000E+01
    -15.800  0.0000E+00  0.2000E+01
    -15.693  0.0000E+00  0.2000E+01
    -15.586  0.0000E+00  0.2000E+01
    -15.479  0.0000E+00  0.2000E+01
    -15.373  0.0000E+00  0.2000E+01
    -15.266  0.0000E+00  0.2000E+01
    -15.159  0.0000E+00  0.2000E+01
    -15.053  0.1867E-26  0.2000E+01
    -14.946  0.7981E-23  0.2000E+01
    -14.839  0.1900E-19  0.2000E+01
    -14.732  0.2511E-16  0.2000E+01
    -14.626  0.1835E-13  0.2000E+01
    -14.519  0.7397E-11  0.2000E+01
    -14.412  0.1627E-08  0.2000E+01
    -14.306  0.1934E-06  0.2000E+01
    -14.199  0.1222E-04  0.2000E+01
    -14.092  0.3985E-03  0.2000E+01
    -13.985  0.6320E-02  0.2001E+01
    -13.879  0.4144E-01  0.2005E+01
    -13.772  0.3287E-01  0.2009E+01
    -13.665 -0.5065E+00  0.1955E+01
    -13.559 -0.4077E+00  0.1911E+01
    -13.452  0.4789E+01  0.2422E+01
    -13.345  0.1000E+02  0.3490E+01
    -13.238  0.5485E+01  0.4075E+01
    -13.132 -0.1883E+00  0.4055E+01
    -13.025 -0.5816E+00  0.3993E+01
    -12.918  0.1397E-01  0.3994E+01
    -12.811  0.4647E-01  0.3999E+01
    -12.705  0.7841E-02  0.4000E+01
    -12.598  0.5315E-03  0.4000E+01
    -12.491  0.1736E-04  0.4000E+01
    -12.385  0.2917E-06  0.4000E+01
    -12.278  0.2600E-08  0.4000E+01
    -12.171  0.3743E-10  0.4000E+01
    -12.064  0.5001E-08  0.4000E+01
    -11.958  0.5447E-06  0.4000E+01
    -11.851  0.3167E-04  0.4000E+01
    -11.744  0.9542E-03  0.4000E+01
    -11.638  0.1401E-01  0.4002E+01
    -11.531  0.8433E-01  0.4011E+01
    -11.424  0.4128E-01  0.4015E+01
    -11.317 -0.1027E+01  0.3905E+01
    -11.211 -0.5619E+00  0.3845E+01
    -11.104  0.9779E+01  0.4889E+01
    -10.997  0.1964E+02  0.6985E+01
    -10.891  0.1084E+02  0.8141E+01
    -10.784 -0.6153E+00  0.8076E+01
    -10.677 -0.1771E+01  0.7887E+01
    -10.570  0.3781E+01  0.8290E+01
    -10.464  0.9897E+01  0.9346E+01
    -10.357  0.6527E+01  0.1004E+02
    -10.250  0.2453E+00  0.1007E+02
    -10.144 -0.6856E+00  0.9996E+01
    -10.037 -0.2528E-01  0.9993E+01
     -9.930  0.5372E-01  0.9999E+01
     -9.823  0.1067E-01  0.1000E+02
     -9.717  0.8076E-03  0.1000E+02
     -9.610  0.2905E-04  0.1000E+02
     -9.503  0.5338E-06  0.1000E+02
     -9.397  0.5187E-08  0.1000E+02
     -9.290  0.2717E-10  0.1000E+02
     -9.183  0.7699E-13  0.1000E+02
     -9.076  0.0000E+00  0.1000E+02
     -8.970  0.0000E+00  0.1000E+02
     -8.863  0.0000E+00  0.1000E+02
     -8.756  0.0000E+00  0.1000E+02
     -8.650  0.0000E+00  0.1000E+02
     -8.543  0.0000E+00  0.1000E+02
     -8.436  0.0000E+00  0.1000E+02
     -8.329  0.1382E-26  0.1000E+02
     -8.223  0.6030E-23  0.1000E+02
     -8.116  0.1465E-19  0.1000E+02
     -8.009  0.1976E-16  0.1000E+02
     -7.902  0.1475E-13  0.1000E+02
     -7.796  0.6069E-11  0.1000E+02
     -7.689  0.1363E-08  0.1000E+02
     -7.582  0.1655E-06  0.1000E+02
     -7.476  0.1070E-04  0.1000E+02
     -7.369  0.3573E-03  0.1000E+02
     -7.262  0.5819E-02  0.1000E+02
     -7.155  0.3958E-01  0.1000E+02
     -7.049  0.3859E-01  0.1001E+02
     -6.942 -0.4780E+00  0.9958E+01
     -6.835 -0.4745E+00  0.9907E+01
     -6.729  0.4556E+01  0.1039E+02
     -6.622  0.1013E+02  0.1147E+02
     -6.515  0.5824E+01  0.1210E+02
     -6.408 -0.1825E+01  0.1190E+02
     -6.302 -0.1360E+01  0.1176E+02
     -6.195  0.1679E+02  0.1355E+02
     -6.088  0.3422E+02  0.1720E+02
     -5.982  0.2631E+02  0.2001E+02
     -5.875  0.2398E+02  0.2257E+02
     -5.768  0.4526E+02  0.2740E+02
     -5.661  0.9988E+02  0.3806E+02
     -5.555  0.2144E+03  0.6093E+02
     -5.448  0.3024E+03  0.9321E+02
     -5.341  0.2671E+03  0.1217E+03
     -5.235  0.2132E+03  0.1445E+03
     -5.128  0.2571E+03  0.1719E+03
     -5.021  0.3461E+03  0.2088E+03
     -4.914  0.3582E+03  0.2471E+03
     -4.808  0.3055E+03  0.2797E+03
     -4.701  0.3309E+03  0.3150E+03
     -4.594  0.4022E+03  0.3579E+03
     -4.488  0.4116E+03  0.4018E+03
     -4.381  0.4571E+03  0.4506E+03
     -4.274  0.5573E+03  0.5101E+03
     -4.167  0.4649E+03  0.5597E+03
     -4.061  0.1846E+03  0.5794E+03
     -3.954  0.1965E+02  0.5815E+03
     -3.847  0.1624E+02  0.5832E+03
     -3.741  0.2762E+02  0.5862E+03
     -3.634  0.1678E+02  0.5880E+03
     -3.527  0.2217E+02  0.5903E+03
     -3.420  0.2746E+02  0.5933E+03
     -3.314  0.6819E+01  0.5940E+03
     -3.207 -0.3183E+01  0.5937E+03
     -3.100  0.2864E+02  0.5967E+03
     -2.993  0.6251E+02  0.6034E+03
     -2.887  0.4370E+02  0.6080E+03
     -2.780  0.1125E+02  0.6092E+03
     -2.673  0.6385E+01  0.6099E+03
     -2.567  0.2192E+02  0.6123E+03
     -2.460  0.2954E+02  0.6154E+03
     -2.353  0.1576E+02  0.6171E+03
     -2.246  0.7187E+01  0.6179E+03
     -2.140  0.1950E+02  0.6199E+03
     -2.033  0.3940E+02  0.6242E+03
     -1.926  0.4670E+02  0.6291E+03
     -1.820  0.4055E+02  0.6335E+03
     -1.713  0.3522E+02  0.6372E+03
     -1.606  0.3626E+02  0.6411E+03
     -1.499  0.2678E+02  0.6439E+03
     -1.393  0.1733E+02  0.6458E+03
     -1.286  0.2746E+02  0.6487E+03
     -1.179  0.3558E+02  0.6525E+03
     -1.073  0.3208E+02  0.6559E+03
     -0.966  0.4710E+02  0.6610E+03
     -0.859  0.5630E+02  0.6670E+03
     -0.752  0.2905E+02  0.6701E+03
     -0.646  0.8325E+01  0.6710E+03
     -0.539  0.7109E+01  0.6717E+03
     -0.432  0.3169E+01  0.6721E+03
     -0.326 -0.4688E+00  0.6720E+03
     -0.219 -0.2860E+00  0.6720E+03
     -0.112  0.6332E-01  0.6720E+03
     -0.005  0.3167E-01  0.6720E+03
      0.101  0.3932E-02  0.6720E+03
      0.208  0.2135E-03  0.6720E+03
      0.315  0.5734E-05  0.6720E+03
      0.421  0.8008E-07  0.6720E+03
      0.528  0.5969E-09  0.6720E+03
      0.635  0.2409E-11  0.6720E+03
      0.742  0.6242E-14  0.6720E+03
      0.848  0.0000E+00  0.6720E+03
      0.955  0.0000E+00  0.6720E+03
      1.062  0.0000E+00  0.6720E+03
      1.168  0.0000E+00  0.6720E+03
      1.275  0.0000E+00  0.6720E+03
      1.382  0.0000E+00  0.6720E+03
