  57  57   0   0
  0.4736842E+03  0.3000000E-08  0.3000000E-08  0.3000000E-08  0.5000000E-15
  1.000000000000000E-004
  CAR 
 6_Pd100_top_free_z(O)                   
      1.29760160    -31.00316107  301     -4.12365535      1.00000000
    -31.003  0.0000E+00  0.0000E+00
    -30.895  0.0000E+00  0.0000E+00
    -30.788  0.0000E+00  0.0000E+00
    -30.680  0.4290E-27  0.4619E-28
    -30.572  0.2176E-23  0.2343E-24
    -30.465  0.6083E-20  0.6552E-21
    -30.357  0.9349E-17  0.1007E-17
    -30.249  0.7867E-14  0.8480E-15
    -30.142  0.3614E-11  0.3899E-12
    -30.034  0.8971E-09  0.9698E-10
    -29.926  0.1192E-06  0.1294E-07
    -29.819  0.8350E-05  0.9120E-06
    -29.711  0.2994E-03  0.3315E-04
    -29.603  0.5194E-02  0.5924E-03
    -29.496  0.3750E-01  0.4629E-02
    -29.388  0.4267E-01  0.9224E-02
    -29.280 -0.4605E+00 -0.4035E-01
    -29.173 -0.4954E+00 -0.9369E-01
    -29.065  0.4502E+01  0.3911E+00
    -28.957  0.9970E+01  0.1464E+01
    -28.850  0.5640E+01  0.2072E+01
    -28.742 -0.1511E+00  0.2055E+01
    -28.634 -0.5837E+00  0.1993E+01
    -28.527  0.1484E-01  0.1994E+01
    -28.419  0.4567E-01  0.1999E+01
    -28.311  0.7449E-02  0.2000E+01
    -28.204  0.4834E-03  0.2000E+01
    -28.096  0.1497E-04  0.2000E+01
    -27.988  0.2359E-06  0.2000E+01
    -27.881  0.1953E-08  0.2000E+01
    -27.773  0.8639E-11  0.2000E+01
    -27.665  0.2062E-13  0.2000E+01
    -27.558  0.0000E+00  0.2000E+01
    -27.450  0.0000E+00  0.2000E+01
    -27.342  0.0000E+00  0.2000E+01
    -27.235  0.0000E+00  0.2000E+01
    -27.127  0.0000E+00  0.2000E+01
    -27.019  0.0000E+00  0.2000E+01
    -26.912  0.0000E+00  0.2000E+01
    -26.804  0.0000E+00  0.2000E+01
    -26.696  0.0000E+00  0.2000E+01
    -26.589  0.0000E+00  0.2000E+01
    -26.481  0.0000E+00  0.2000E+01
    -26.373  0.0000E+00  0.2000E+01
    -26.266  0.0000E+00  0.2000E+01
    -26.158  0.0000E+00  0.2000E+01
    -26.050  0.0000E+00  0.2000E+01
    -25.943  0.0000E+00  0.2000E+01
    -25.835  0.0000E+00  0.2000E+01
    -25.727  0.0000E+00  0.2000E+01
    -25.620  0.0000E+00  0.2000E+01
    -25.512  0.0000E+00  0.2000E+01
    -25.404  0.0000E+00  0.2000E+01
    -25.297  0.0000E+00  0.2000E+01
    -25.189  0.0000E+00  0.2000E+01
    -25.081  0.0000E+00  0.2000E+01
    -24.974  0.0000E+00  0.2000E+01
    -24.866  0.0000E+00  0.2000E+01
    -24.758  0.0000E+00  0.2000E+01
    -24.651  0.0000E+00  0.2000E+01
    -24.543  0.0000E+00  0.2000E+01
    -24.435  0.0000E+00  0.2000E+01
    -24.328  0.0000E+00  0.2000E+01
    -24.220  0.0000E+00  0.2000E+01
    -24.112  0.0000E+00  0.2000E+01
    -24.005  0.0000E+00  0.2000E+01
    -23.897  0.0000E+00  0.2000E+01
    -23.789  0.0000E+00  0.2000E+01
    -23.682  0.0000E+00  0.2000E+01
    -23.574  0.0000E+00  0.2000E+01
    -23.466  0.0000E+00  0.2000E+01
    -23.359  0.0000E+00  0.2000E+01
    -23.251  0.0000E+00  0.2000E+01
    -23.143  0.0000E+00  0.2000E+01
    -23.036  0.0000E+00  0.2000E+01
    -22.928  0.0000E+00  0.2000E+01
    -22.820  0.0000E+00  0.2000E+01
    -22.713  0.0000E+00  0.2000E+01
    -22.605  0.0000E+00  0.2000E+01
    -22.497  0.0000E+00  0.2000E+01
    -22.390  0.0000E+00  0.2000E+01
    -22.282  0.0000E+00  0.2000E+01
    -22.174  0.0000E+00  0.2000E+01
    -22.067  0.0000E+00  0.2000E+01
    -21.959  0.0000E+00  0.2000E+01
    -21.851  0.0000E+00  0.2000E+01
    -21.744  0.0000E+00  0.2000E+01
    -21.636  0.0000E+00  0.2000E+01
    -21.528  0.0000E+00  0.2000E+01
    -21.421  0.0000E+00  0.2000E+01
    -21.313  0.0000E+00  0.2000E+01
    -21.205  0.0000E+00  0.2000E+01
    -21.098  0.0000E+00  0.2000E+01
    -20.990  0.0000E+00  0.2000E+01
    -20.882  0.0000E+00  0.2000E+01
    -20.775  0.0000E+00  0.2000E+01
    -20.667  0.0000E+00  0.2000E+01
    -20.559  0.0000E+00  0.2000E+01
    -20.452  0.0000E+00  0.2000E+01
    -20.344  0.0000E+00  0.2000E+01
    -20.236  0.0000E+00  0.2000E+01
    -20.129  0.0000E+00  0.2000E+01
    -20.021  0.0000E+00  0.2000E+01
    -19.913  0.0000E+00  0.2000E+01
    -19.806  0.0000E+00  0.2000E+01
    -19.698  0.0000E+00  0.2000E+01
    -19.590  0.0000E+00  0.2000E+01
    -19.483  0.0000E+00  0.2000E+01
    -19.375  0.0000E+00  0.2000E+01
    -19.267  0.0000E+00  0.2000E+01
    -19.160  0.0000E+00  0.2000E+01
    -19.052  0.0000E+00  0.2000E+01
    -18.944  0.0000E+00  0.2000E+01
    -18.837  0.0000E+00  0.2000E+01
    -18.729  0.0000E+00  0.2000E+01
    -18.621  0.0000E+00  0.2000E+01
    -18.514  0.0000E+00  0.2000E+01
    -18.406  0.0000E+00  0.2000E+01
    -18.298  0.0000E+00  0.2000E+01
    -18.191  0.0000E+00  0.2000E+01
    -18.083  0.0000E+00  0.2000E+01
    -17.975  0.0000E+00  0.2000E+01
    -17.868  0.0000E+00  0.2000E+01
    -17.760  0.0000E+00  0.2000E+01
    -17.652  0.0000E+00  0.2000E+01
    -17.545  0.0000E+00  0.2000E+01
    -17.437  0.0000E+00  0.2000E+01
    -17.329  0.0000E+00  0.2000E+01
    -17.222  0.0000E+00  0.2000E+01
    -17.114  0.0000E+00  0.2000E+01
    -17.006  0.0000E+00  0.2000E+01
    -16.898  0.0000E+00  0.2000E+01
    -16.791  0.0000E+00  0.2000E+01
    -16.683  0.0000E+00  0.2000E+01
    -16.575  0.0000E+00  0.2000E+01
    -16.468  0.0000E+00  0.2000E+01
    -16.360  0.0000E+00  0.2000E+01
    -16.252  0.0000E+00  0.2000E+01
    -16.145  0.0000E+00  0.2000E+01
    -16.037  0.0000E+00  0.2000E+01
    -15.929  0.0000E+00  0.2000E+01
    -15.822  0.0000E+00  0.2000E+01
    -15.714  0.0000E+00  0.2000E+01
    -15.606  0.0000E+00  0.2000E+01
    -15.499  0.0000E+00  0.2000E+01
    -15.391  0.7057E-25  0.2000E+01
    -15.283  0.2520E-21  0.2000E+01
    -15.176  0.4952E-18  0.2000E+01
    -15.068  0.5338E-15  0.2000E+01
    -14.960  0.3152E-12  0.2000E+01
    -14.853  0.1006E-09  0.2000E+01
    -14.745  0.1731E-07  0.2000E+01
    -14.637  0.1581E-05  0.2000E+01
    -14.530  0.7495E-04  0.2000E+01
    -14.422  0.1769E-02  0.2000E+01
    -14.314  0.1889E-01  0.2002E+01
    -14.207  0.6378E-01  0.2009E+01
    -14.099 -0.1621E+00  0.1992E+01
    -13.991 -0.8152E+00  0.1904E+01
    -13.884  0.1723E+01  0.2089E+01
    -13.776  0.8608E+01  0.3016E+01
    -13.668  0.8450E+01  0.3926E+01
    -13.561  0.1562E+01  0.4094E+01
    -13.453 -0.8122E+00  0.4007E+01
    -13.345 -0.1457E+00  0.3991E+01
    -13.238  0.6332E-01  0.3998E+01
    -13.130  0.1788E-01  0.4000E+01
    -13.022  0.1680E-02  0.4000E+01
    -12.915  0.1286E-02  0.4000E+01
    -12.807  0.1458E-01  0.4002E+01
    -12.699  0.6047E-01  0.4008E+01
    -12.592 -0.9246E-01  0.3998E+01
    -12.484 -0.7822E+00  0.3914E+01
    -12.376  0.1035E+01  0.4026E+01
    -12.269  0.7883E+01  0.4874E+01
    -12.161  0.9077E+01  0.5852E+01
    -12.053  0.1627E+01  0.6027E+01
    -11.946 -0.3207E+00  0.5992E+01
    -11.838  0.6783E+01  0.6723E+01
    -11.730  0.9646E+01  0.7761E+01
    -11.623  0.3174E+01  0.8103E+01
    -11.515 -0.7349E+00  0.8024E+01
    -11.407 -0.3126E+00  0.7990E+01
    -11.300  0.6010E-01  0.7997E+01
    -11.192  0.2815E-01  0.8000E+01
    -11.084  0.3265E-02  0.8000E+01
    -10.977  0.9170E-03  0.8000E+01
    -10.869  0.1035E-01  0.8001E+01
    -10.761  0.5336E-01  0.8007E+01
    -10.654 -0.2665E-01  0.8004E+01
    -10.546 -0.6926E+00  0.7930E+01
    -10.438  0.3231E+00  0.7964E+01
    -10.331  0.6717E+01  0.8688E+01
    -10.223  0.9703E+01  0.9732E+01
    -10.115  0.3439E+01  0.1010E+02
    -10.008 -0.6997E+00  0.1003E+02
     -9.900 -0.3439E+00  0.9990E+01
     -9.792  0.5761E-01  0.9996E+01
     -9.685  0.3009E-01  0.1000E+02
     -9.577  0.3602E-02  0.1000E+02
     -9.469  0.1858E-03  0.1000E+02
     -9.362  0.4689E-05  0.1000E+02
     -9.254  0.6091E-07  0.1000E+02
     -9.146  0.4181E-09  0.1000E+02
     -9.039  0.1543E-11  0.1000E+02
     -8.931  0.2062E-14  0.1000E+02
     -8.823  0.0000E+00  0.1000E+02
     -8.716  0.0000E+00  0.1000E+02
     -8.608  0.0000E+00  0.1000E+02
     -8.500  0.5183E-26  0.1000E+02
     -8.393  0.2219E-22  0.1000E+02
     -8.285  0.5233E-19  0.1000E+02
     -8.177  0.6777E-16  0.1000E+02
     -8.070  0.4799E-13  0.1000E+02
     -7.962  0.1853E-10  0.1000E+02
     -7.854  0.3854E-08  0.1000E+02
     -7.747  0.4276E-06  0.1000E+02
     -7.639  0.2484E-04  0.1000E+02
     -7.531  0.7298E-03  0.1000E+02
     -7.424  0.1010E-01  0.1000E+02
     -7.316  0.5290E-01  0.1001E+02
     -7.208 -0.2049E-01  0.1000E+02
     -7.101 -0.6618E+00  0.9933E+01
     -6.993  0.3451E+00  0.9971E+01
     -6.885  0.6409E+01  0.1066E+02
     -6.778  0.8952E+01  0.1162E+02
     -6.670  0.5978E+01  0.1227E+02
     -6.562  0.8396E+01  0.1317E+02
     -6.455  0.6618E+01  0.1388E+02
     -6.347  0.1438E+01  0.1404E+02
     -6.239  0.8758E+01  0.1498E+02
     -6.132  0.2436E+02  0.1760E+02
     -6.024  0.2745E+02  0.2056E+02
     -5.916  0.2223E+02  0.2295E+02
     -5.809  0.3746E+02  0.2699E+02
     -5.701  0.6770E+02  0.3428E+02
     -5.593  0.1323E+03  0.4852E+02
     -5.486  0.2407E+03  0.7443E+02
     -5.378  0.2893E+03  0.1056E+03
     -5.270  0.2370E+03  0.1311E+03
     -5.163  0.2119E+03  0.1539E+03
     -5.055  0.2862E+03  0.1847E+03
     -4.947  0.3595E+03  0.2234E+03
     -4.840  0.3294E+03  0.2589E+03
     -4.732  0.2944E+03  0.2906E+03
     -4.624  0.3621E+03  0.3296E+03
     -4.517  0.4177E+03  0.3746E+03
     -4.409  0.4190E+03  0.4197E+03
     -4.301  0.4943E+03  0.4729E+03
     -4.194  0.5451E+03  0.5316E+03
     -4.086  0.3542E+03  0.5697E+03
     -3.978  0.9509E+02  0.5800E+03
     -3.871  0.1523E+02  0.5816E+03
     -3.763  0.2916E+02  0.5847E+03
     -3.655  0.2302E+02  0.5872E+03
     -3.548  0.1312E+02  0.5886E+03
     -3.440  0.1780E+02  0.5906E+03
     -3.332  0.1410E+02  0.5921E+03
     -3.225  0.5494E+01  0.5927E+03
     -3.117  0.1812E+02  0.5946E+03
     -3.009  0.5307E+02  0.6003E+03
     -2.901  0.5788E+02  0.6066E+03
     -2.794  0.2516E+02  0.6093E+03
     -2.686  0.4643E+01  0.6098E+03
     -2.578  0.6671E+01  0.6105E+03
     -2.471  0.2040E+02  0.6127E+03
     -2.363  0.2339E+02  0.6152E+03
     -2.255  0.1717E+02  0.6170E+03
     -2.148  0.2020E+02  0.6192E+03
     -2.040  0.3063E+02  0.6225E+03
     -1.932  0.3942E+02  0.6268E+03
     -1.825  0.4457E+02  0.6316E+03
     -1.717  0.3924E+02  0.6358E+03
     -1.609  0.3442E+02  0.6395E+03
     -1.502  0.3680E+02  0.6435E+03
     -1.394  0.3027E+02  0.6467E+03
     -1.286  0.1883E+02  0.6487E+03
     -1.179  0.1601E+02  0.6505E+03
     -1.071  0.2310E+02  0.6530E+03
     -0.963  0.4503E+02  0.6578E+03
     -0.856  0.6066E+02  0.6643E+03
     -0.748  0.4770E+02  0.6695E+03
     -0.640  0.2221E+02  0.6719E+03
     -0.533  0.3128E+01  0.6722E+03
     -0.425 -0.1768E+01  0.6720E+03
     -0.317 -0.3347E+00  0.6720E+03
     -0.210  0.1863E+00  0.6720E+03
     -0.102  0.6248E-01  0.6720E+03
      0.006  0.7015E-02  0.6720E+03
      0.113  0.3639E-03  0.6720E+03
      0.221  0.9524E-05  0.6720E+03
      0.329  0.1305E-06  0.6720E+03
      0.436  0.9552E-09  0.6720E+03
      0.544  0.3778E-11  0.6720E+03
      0.652  0.8249E-14  0.6720E+03
      0.759  0.0000E+00  0.6720E+03
      0.867  0.0000E+00  0.6720E+03
      0.975  0.0000E+00  0.6720E+03
      1.082  0.0000E+00  0.6720E+03
      1.190  0.0000E+00  0.6720E+03
      1.298  0.0000E+00  0.6720E+03
