<?xml version="1.0" encoding="ISO-8859-1"?>
<modeling>
 <generator>
  <i name="program" type="string">vasp </i>
  <i name="version" type="string">5.4.4.18Apr17-6-g9f103f2a35  </i>
  <i name="subversion" type="string">(build Sep 03 2018 23:53:05) complex            parallel </i>
  <i name="platform" type="string">LinuxIFC </i>
  <i name="date" type="string">2021 12 01 </i>
  <i name="time" type="string">14:41:03 </i>
 </generator>
 <incar>
  <i type="string" name="SYSTEM"> 6_Pd100_top_free_z(O)</i>
  <i type="int" name="ISTART">     0</i>
  <i type="string" name="PREC">normal   			! encut=max(enmax), ngx,y,z</i>
  <i type="string" name="ALGO"> Fast     			! Mix RMM-DIIS and Dav</i>
  <i type="logical" name="ADDGRID"> F  </i>
  <i type="int" name="ISPIN">     1</i>
  <i type="int" name="ICHARG">     2</i>
  <i type="int" name="NELM">   100</i>
  <i type="int" name="NELMIN">     6</i>
  <i type="int" name="IBRION">     2</i>
  <i name="EDIFF">      0.00010000</i>
  <i name="EDIFFG">     -0.05000000</i>
  <i type="int" name="NSW">     0</i>
  <i type="int" name="ISIF">     2</i>
  <i type="int" name="ISYM">     2</i>
  <i name="ENCUT">    400.00000000</i>
  <i type="string" name="LREAL"> Auto     			! Auto or A projection done</i>
  <i type="int" name="ISMEAR">     2</i>
  <i name="SIGMA">      0.20000000</i>
  <i type="logical" name="LWAVE"> F  </i>
  <i type="logical" name="LCHARG"> F  </i>
  <v type="int" name="KPOINT_BSE">    -1     0     0     0</v>
  <i type="int" name="MAXMEM"> 10000</i>
  <i type="int" name="NELM">   100</i>
  <i type="string" name="GGA"> RP         			! Revised PBE</i>
 </incar>
 <structure name="primitive_cell" >
  <crystal>
   <varray name="basis" >
    <v>      30.00000000       0.00000000       0.00000000 </v>
    <v>       0.00000000      30.00000000       0.00000000 </v>
    <v>       0.00000000       0.00000000      30.00000000 </v>
   </varray>
   <i name="volume">  27000.00000000 </i>
   <varray name="rec_basis" >
    <v>       0.03333333       0.00000000       0.00000000 </v>
    <v>       0.00000000       0.03333333       0.00000000 </v>
    <v>       0.00000000       0.00000000       0.03333333 </v>
   </varray>
  </crystal>
  <varray name="positions" >
   <v>       0.44576020       0.32826710       0.41691983 </v>
   <v>      -0.44576020       0.32826710       0.41691983 </v>
   <v>      -0.50000000       0.38250690       0.34021317 </v>
   <v>      -0.50000000       0.27609440      -0.50000000 </v>
   <v>       0.38804720       0.38804720       0.34167483 </v>
   <v>      -0.50000000       0.38416601      -0.50000000 </v>
   <v>       0.44208300       0.44208300       0.41809300 </v>
   <v>       0.38317830       0.38317830      -0.50000000 </v>
   <v>      -0.44208300       0.44208300       0.41809300 </v>
   <v>       0.44576020       0.32826710      -0.41691977 </v>
   <v>       0.32826705       0.44576024       0.41691983 </v>
   <v>      -0.38804720       0.38804720       0.34167483 </v>
   <v>      -0.38317830       0.38317830      -0.50000000 </v>
   <v>      -0.50000000      -0.50000000       0.33478917 </v>
   <v>      -0.50000000      -0.50000000      -0.50000000 </v>
   <v>      -0.44576020       0.32826710      -0.41691977 </v>
   <v>       0.38250685      -0.49999995       0.34021317 </v>
   <v>       0.44208300       0.44208300      -0.41809297 </v>
   <v>       0.38416599      -0.49999998      -0.50000000 </v>
   <v>      -0.44208300       0.44208300      -0.41809297 </v>
   <v>       0.44208298      -0.44208298       0.41809300 </v>
   <v>       0.32826705       0.44576024      -0.41691977 </v>
   <v>      -0.50000000       0.38250690      -0.34021320 </v>
   <v>       0.32826712      -0.44576022       0.41691983 </v>
   <v>      -0.38250685      -0.49999995       0.34021317 </v>
   <v>      -0.32826705       0.44576024       0.41691983 </v>
   <v>       0.27609443       0.49999998      -0.50000000 </v>
   <v>       0.38804720       0.38804720      -0.34167487 </v>
   <v>      -0.38416599      -0.49999998      -0.50000000 </v>
   <v>      -0.44208298      -0.44208298       0.41809300 </v>
   <v>       0.44208298      -0.44208298      -0.41809297 </v>
   <v>      -0.38804720       0.38804720      -0.34167487 </v>
   <v>       0.38804722      -0.38804722       0.34167483 </v>
   <v>       0.38250685      -0.49999995      -0.34021320 </v>
   <v>       0.32826712      -0.44576022      -0.41691977 </v>
   <v>      -0.32826705       0.44576024      -0.41691977 </v>
   <v>       0.50000000      -0.38250681       0.34021317 </v>
   <v>      -0.50000000      -0.38416596      -0.50000000 </v>
   <v>      -0.44208298      -0.44208298      -0.41809297 </v>
   <v>      -0.50000000      -0.50000000      -0.33478913 </v>
   <v>       0.38317828      -0.38317828      -0.50000000 </v>
   <v>      -0.32826712      -0.44576022       0.41691983 </v>
   <v>      -0.27609443       0.49999998      -0.50000000 </v>
   <v>      -0.38804722      -0.38804722       0.34167483 </v>
   <v>      -0.38250685      -0.49999995      -0.34021320 </v>
   <v>       0.44576027      -0.32826707       0.41691983 </v>
   <v>      -0.38317828      -0.38317828      -0.50000000 </v>
   <v>      -0.32826712      -0.44576022      -0.41691977 </v>
   <v>      -0.44576027      -0.32826707       0.41691983 </v>
   <v>      -0.48861130      -0.48367537      -0.27007313 </v>
   <v>       0.38804722      -0.38804722      -0.34167487 </v>
   <v>      -0.50000000      -0.38250681      -0.34021320 </v>
   <v>       0.44576027      -0.32826707      -0.41691977 </v>
   <v>      -0.44576027      -0.32826707      -0.41691977 </v>
   <v>      -0.48675583      -0.48101573      -0.23261323 </v>
   <v>      -0.50000000      -0.27609445       0.50000000 </v>
   <v>      -0.38804722      -0.38804722      -0.34167487 </v>
  </varray>
 </structure>
 <varray name="primitive_index" >
  <v type="int" >        1 </v>
  <v type="int" >        3 </v>
  <v type="int" >        5 </v>
  <v type="int" >        7 </v>
  <v type="int" >       15 </v>
  <v type="int" >       29 </v>
  <v type="int" >       28 </v>
  <v type="int" >       34 </v>
  <v type="int" >       21 </v>
  <v type="int" >       19 </v>
  <v type="int" >       22 </v>
  <v type="int" >       11 </v>
  <v type="int" >       36 </v>
  <v type="int" >       38 </v>
  <v type="int" >       52 </v>
  <v type="int" >       24 </v>
  <v type="int" >       32 </v>
  <v type="int" >       44 </v>
  <v type="int" >       48 </v>
  <v type="int" >       42 </v>
  <v type="int" >       43 </v>
  <v type="int" >       40 </v>
  <v type="int" >        6 </v>
  <v type="int" >        4 </v>
  <v type="int" >       30 </v>
  <v type="int" >       26 </v>
  <v type="int" >        8 </v>
  <v type="int" >       16 </v>
  <v type="int" >       49 </v>
  <v type="int" >       47 </v>
  <v type="int" >       53 </v>
  <v type="int" >       12 </v>
  <v type="int" >       13 </v>
  <v type="int" >       33 </v>
  <v type="int" >       25 </v>
  <v type="int" >       45 </v>
  <v type="int" >       50 </v>
  <v type="int" >       55 </v>
  <v type="int" >       54 </v>
  <v type="int" >       39 </v>
  <v type="int" >       37 </v>
  <v type="int" >        2 </v>
  <v type="int" >        9 </v>
  <v type="int" >       17 </v>
  <v type="int" >       31 </v>
  <v type="int" >       27 </v>
  <v type="int" >       35 </v>
  <v type="int" >       20 </v>
  <v type="int" >       23 </v>
  <v type="int" >       56 </v>
  <v type="int" >       14 </v>
  <v type="int" >       51 </v>
  <v type="int" >       46 </v>
  <v type="int" >       41 </v>
  <v type="int" >       57 </v>
  <v type="int" >       10 </v>
  <v type="int" >       18 </v>
 </varray>
 <kpoints>
  <generation param="Monkhorst-Pack">
   <v type="int" name="divisions">       1        1        1 </v>
   <v name="usershift">      0.00000000       0.00000000       0.00000000 </v>
   <v name="genvec1">      1.00000000       0.00000000       0.00000000 </v>
   <v name="genvec2">      0.00000000       1.00000000       0.00000000 </v>
   <v name="genvec3">      0.00000000       0.00000000       1.00000000 </v>
   <v name="shift">      0.00000000       0.00000000       0.00000000 </v>
  </generation>
  <varray name="kpointlist" >
   <v>       0.00000000       0.00000000       0.00000000 </v>
  </varray>
  <varray name="weights" >
   <v>       1.00000000 </v>
  </varray>
 </kpoints>
 <parameters>
  <separator name="general" >
   <i type="string" name="SYSTEM">6_Pd100_top_free_z(O)</i>
   <i type="logical" name="LCOMPAT"> F  </i>
  </separator>
  <separator name="electronic" >
   <i type="string" name="PREC">normal</i>
   <i name="ENMAX">    400.00000000</i>
   <i name="ENAUG">    644.87300000</i>
   <i name="EDIFF">      0.00010000</i>
   <i type="int" name="IALGO">    68</i>
   <i type="int" name="IWAVPR">    10</i>
   <i type="int" name="NBANDS">   336</i>
   <i name="NELECT">    560.00000000</i>
   <i type="int" name="TURBO">     0</i>
   <i type="int" name="IRESTART">     0</i>
   <i type="int" name="NREBOOT">     0</i>
   <i type="int" name="NMIN">     0</i>
   <i name="EREF">      0.00000000</i>
   <separator name="electronic smearing" >
    <i type="int" name="ISMEAR">     2</i>
    <i name="SIGMA">      0.20000000</i>
    <i name="KSPACING">      0.50000000</i>
    <i type="logical" name="KGAMMA"> T  </i>
   </separator>
   <separator name="electronic projectors" >
    <i type="logical" name="LREAL"> T  </i>
    <v name="ROPT">     -0.00050000     -0.00050000     -0.00050000</v>
    <i type="int" name="LMAXPAW">  -100</i>
    <i type="int" name="LMAXMIX">     2</i>
    <i type="logical" name="NLSPLINE"> F  </i>
   </separator>
   <separator name="electronic startup" >
    <i type="int" name="ISTART">     0</i>
    <i type="int" name="ICHARG">     2</i>
    <i type="int" name="INIWAV">     1</i>
   </separator>
   <separator name="electronic spin" >
    <i type="int" name="ISPIN">     1</i>
    <i type="logical" name="LNONCOLLINEAR"> F  </i>
    <v name="MAGMOM">      1.00000000      1.00000000      1.00000000      1.00000000      1.00000000      1.00000000      1.00000000      1.00000000      1.00000000      1.00000000      1.00000000      1.00000000      1.00000000      1.00000000      1.00000000      1.00000000      1.00000000      1.00000000      1.00000000      1.00000000
      1.00000000      1.00000000      1.00000000      1.00000000      1.00000000      1.00000000      1.00000000      1.00000000      1.00000000      1.00000000      1.00000000      1.00000000      1.00000000      1.00000000      1.00000000      1.00000000      1.00000000      1.00000000      1.00000000      1.00000000
      1.00000000      1.00000000      1.00000000      1.00000000      1.00000000      1.00000000      1.00000000      1.00000000      1.00000000      1.00000000      1.00000000      1.00000000      1.00000000      1.00000000      1.00000000      1.00000000      1.00000000</v>
    <i name="NUPDOWN">     -1.00000000</i>
    <i type="logical" name="LSORBIT"> F  </i>
    <v name="SAXIS">      0.00000000      0.00000000      1.00000000</v>
    <i type="logical" name="LSPIRAL"> F  </i>
    <v name="QSPIRAL">      0.00000000      0.00000000      0.00000000</v>
    <i type="logical" name="LZEROZ"> F  </i>
   </separator>
   <separator name="electronic exchange-correlation" >
    <i type="logical" name="LASPH"> F  </i>
    <i type="logical" name="LMETAGGA"> F  </i>
   </separator>
   <separator name="electronic convergence" >
    <i type="int" name="NELM">   100</i>
    <i type="int" name="NELMDL">    -5</i>
    <i type="int" name="NELMIN">     6</i>
    <i name="ENINI">    400.00000000</i>
    <separator name="electronic convergence detail" >
     <i type="logical" name="LDIAG"> T  </i>
     <i type="logical" name="LSUBROT"> F  </i>
     <i name="WEIMIN">      0.00000000</i>
     <i name="EBREAK">      0.00000007</i>
     <i name="DEPER">      0.30000000</i>
     <i type="int" name="NRMM">     4</i>
     <i name="TIME">      0.40000000</i>
    </separator>
   </separator>
   <separator name="electronic mixer" >
    <i name="AMIX">      0.40000000</i>
    <i name="BMIX">      1.00000000</i>
    <i name="AMIN">      0.10000000</i>
    <i name="AMIX_MAG">      1.60000000</i>
    <i name="BMIX_MAG">      1.00000000</i>
    <separator name="electronic mixer details" >
     <i type="int" name="IMIX">     4</i>
     <i type="logical" name="MIXFIRST"> F  </i>
     <i type="int" name="MAXMIX">   -45</i>
     <i name="WC">    100.00000000</i>
     <i type="int" name="INIMIX">     1</i>
     <i type="int" name="MIXPRE">     1</i>
     <i type="int" name="MREMOVE">     5</i>
    </separator>
   </separator>
   <separator name="electronic dipolcorrection" >
    <i type="logical" name="LDIPOL"> F  </i>
    <i type="logical" name="LMONO"> F  </i>
    <i type="int" name="IDIPOL">     0</i>
    <i name="EPSILON">      1.00000000</i>
    <v name="DIPOL">   -100.00000000   -100.00000000   -100.00000000</v>
    <i name="EFIELD">      0.00000000</i>
   </separator>
  </separator>
  <separator name="grids" >
   <i type="int" name="NGX">   150</i>
   <i type="int" name="NGY">   150</i>
   <i type="int" name="NGZ">   150</i>
   <i type="int" name="NGXF">   300</i>
   <i type="int" name="NGYF">   300</i>
   <i type="int" name="NGZF">   300</i>
   <i type="logical" name="ADDGRID"> F  </i>
  </separator>
  <separator name="ionic" >
   <i type="int" name="NSW">     0</i>
   <i type="int" name="IBRION">    -1</i>
   <i type="int" name="MDALGO">     0</i>
   <i type="int" name="ISIF">     2</i>
   <i name="PSTRESS">      0.00000000</i>
   <i name="EDIFFG">     -0.05000000</i>
   <i type="int" name="NFREE">     1</i>
   <i name="POTIM">      0.50000000</i>
   <i name="SMASS">     -3.00000000</i>
   <i name="SCALEE">      1.00000000</i>
  </separator>
  <separator name="ionic md" >
   <i name="TEBEG">      0.00010000</i>
   <i name="TEEND">      0.00010000</i>
   <i type="int" name="NBLOCK">     1</i>
   <i type="int" name="KBLOCK">     1</i>
   <i type="int" name="NPACO">   256</i>
   <i name="APACO">     16.00000000</i>
  </separator>
  <separator name="symmetry" >
   <i type="int" name="ISYM">     2</i>
   <i name="SYMPREC">      0.00001000</i>
  </separator>
  <separator name="dos" >
   <i type="int" name="LORBIT">     0</i>
   <v name="RWIGS">     -1.00000000     -1.00000000     -1.00000000</v>
   <i type="int" name="NEDOS">   301</i>
   <i name="EMIN">     10.00000000</i>
   <i name="EMAX">    -10.00000000</i>
   <i name="EFERMI">      0.00000000</i>
  </separator>
  <separator name="writing" >
   <i type="int" name="NWRITE">     2</i>
   <i type="logical" name="LWAVE"> F  </i>
   <i type="logical" name="LDOWNSAMPLE"> F  </i>
   <i type="logical" name="LCHARG"> F  </i>
   <i type="logical" name="LPARD"> F  </i>
   <i type="logical" name="LVTOT"> F  </i>
   <i type="logical" name="LVHAR"> F  </i>
   <i type="logical" name="LELF"> F  </i>
   <i type="logical" name="LOPTICS"> F  </i>
   <v name="STM">      0.00000000      0.00000000      0.00000000      0.00000000      0.00000000      0.00000000      0.00000000</v>
  </separator>
  <separator name="performance" >
   <i type="int" name="NPAR">     1</i>
   <i type="int" name="NSIM">     4</i>
   <i type="int" name="NBLK">    -1</i>
   <i type="logical" name="LPLANE"> T  </i>
   <i type="logical" name="LSCALAPACK"> T  </i>
   <i type="logical" name="LSCAAWARE"> F  </i>
   <i type="logical" name="LSCALU"> F  </i>
   <i type="logical" name="LASYNC"> F  </i>
   <i type="logical" name="LORBITALREAL"> F  </i>
  </separator>
  <separator name="miscellaneous" >
   <i type="int" name="IDIOT">     3</i>
   <i type="int" name="ISPECIAL">     0</i>
   <i type="logical" name="LMUSIC"> F  </i>
   <v name="POMASS">    106.42000000     12.01100000     16.00000000</v>
   <v name="DARWINR">      0.00000000      0.00000000      0.00000000</v>
   <v name="DARWINV">      1.00000000      1.00000000      1.00000000</v>
   <i type="logical" name="LCORR"> T  </i>
  </separator>
  <i type="logical" name="GGA_COMPAT"> T  </i>
  <i type="logical" name="LBERRY"> F  </i>
  <i type="int" name="ICORELEVEL">     0</i>
  <i type="logical" name="LDAU"> F  </i>
  <i type="int" name="I_CONSTRAINED_M">     0</i>
  <separator name="electronic exchange-correlation" >
   <i type="string" name="GGA">RP</i>
   <i type="int" name="VOSKOWN">     0</i>
   <i type="logical" name="LHFCALC"> F  </i>
   <i type="string" name="PRECFOCK"></i>
   <i type="logical" name="LSYMGRAD"> F  </i>
   <i type="logical" name="LHFONE"> F  </i>
   <i type="logical" name="LRHFCALC"> F  </i>
   <i type="logical" name="LTHOMAS"> F  </i>
   <i type="logical" name="LMODELHF"> F  </i>
   <i name="ENCUT4O">     -1.00000000</i>
   <i type="int" name="EXXOEP">     0</i>
   <i type="int" name="FOURORBIT">     0</i>
   <i name="AEXX">      0.00000000</i>
   <i name="HFALPHA">      0.00000000</i>
   <i name="MCALPHA">      0.00000000</i>
   <i name="ALDAX">      1.00000000</i>
   <i name="AGGAX">      1.00000000</i>
   <i name="ALDAC">      1.00000000</i>
   <i name="AGGAC">      1.00000000</i>
   <i type="int" name="NKREDX">     1</i>
   <i type="int" name="NKREDY">     1</i>
   <i type="int" name="NKREDZ">     1</i>
   <i type="logical" name="SHIFTRED"> F  </i>
   <i type="logical" name="ODDONLY"> F  </i>
   <i type="logical" name="EVENONLY"> F  </i>
   <i type="int" name="LMAXFOCK">     0</i>
   <i type="int" name="NMAXFOCKAE">     0</i>
   <i type="logical" name="LFOCKAEDFT"> F  </i>
   <i name="HFSCREEN">      0.00000000</i>
   <i name="HFSCREENC">      0.00000000</i>
   <i type="int" name="NBANDSGWLOW">     0</i>
  </separator>
  <separator name="vdW DFT" >
   <i type="logical" name="LUSE_VDW"> F  </i>
   <i name="Zab_VDW">     -0.84910000</i>
   <i name="PARAM1">      0.12340000</i>
   <i name="PARAM2">      1.00000000</i>
   <i name="PARAM3">      0.00000000</i>
  </separator>
  <separator name="model GW" >
   <i type="int" name="MODEL_GW">     0</i>
   <i name="MODEL_EPS0">    284.21052632</i>
   <i name="MODEL_ALPHA">      1.00000000</i>
  </separator>
  <separator name="linear response parameters" >
   <i type="logical" name="LEPSILON"> F  </i>
   <i type="logical" name="LRPA"> F  </i>
   <i type="logical" name="LNABLA"> F  </i>
   <i type="logical" name="LVEL"> F  </i>
   <i type="int" name="KINTER">     0</i>
   <i name="CSHIFT">      0.10000000</i>
   <i name="OMEGAMAX">     -1.00000000</i>
   <i name="DEG_THRESHOLD">      0.00200000</i>
   <i name="RTIME">     -0.10000000</i>
   <i name="WPLASMAI">      0.00000000</i>
   <v name="DFIELD">      0.00000000      0.00000000      0.00000000</v>
   <v name="WPLASMA">      0.00000000      0.00000000      0.00000000      0.00000000      0.00000000      0.00000000      0.00000000      0.00000000      0.00000000</v>
  </separator>
  <separator name="orbital magnetization" >
   <i type="logical" name="NUCIND"> F  </i>
   <v name="MAGPOS">      0.00000000      0.00000000      0.00000000</v>
   <i type="logical" name="LNICSALL"> T  </i>
   <i type="logical" name="ORBITALMAG"> F  </i>
   <i type="logical" name="LMAGBLOCH"> F  </i>
   <i type="logical" name="LCHIMAG"> F  </i>
   <i type="logical" name="LGAUGE"> T  </i>
   <i type="int" name="MAGATOM">     0</i>
   <v name="MAGDIPOL">      0.00000000      0.00000000      0.00000000</v>
   <v name="AVECCONST">      0.00000000      0.00000000      0.00000000</v>
  </separator>
  <separator name="response functions" >
   <i type="logical" name="LADDER"> F  </i>
   <i type="logical" name="LRPAFORCE"> F  </i>
   <i type="logical" name="LFXC"> F  </i>
   <i type="logical" name="LHARTREE"> T  </i>
   <i type="int" name="IBSE">     0</i>
   <v type="int" name="KPOINT">    -1     0     0     0</v>
   <i type="logical" name="LTCTE"> F  </i>
   <i type="logical" name="LTETE"> F  </i>
   <i type="logical" name="LTRIPLET"> F  </i>
   <i type="logical" name="LFXCEPS"> F  </i>
   <i type="logical" name="LFXHEG"> F  </i>
   <i type="int" name="NATURALO">     2</i>
   <i type="logical" name="L2ORDER"> F  </i>
   <i type="logical" name="LMP2LT"> F  </i>
   <i type="logical" name="LUSEW"> F  </i>
   <i name="ENCUTGW">     -2.00000000</i>
   <i name="ENCUTGWSOFT">     -2.00000000</i>
   <i name="ENCUTLF">     -1.00000000</i>
   <i type="int" name="LMAXMP2">    -1</i>
   <i name="SCISSOR">      0.00000000</i>
   <i type="int" name="NOMEGA">     0</i>
   <i type="int" name="NOMEGAR">     0</i>
   <i type="int" name="NBANDSGW">    -1</i>
   <i type="int" name="NBANDSO">    -1</i>
   <i type="int" name="NBANDSV">    -1</i>
   <i type="int" name="NELM">   100</i>
   <i type="int" name="NELMHF">     1</i>
   <i type="int" name="DIM">     3</i>
   <i type="int" name="ANTIRES">     0</i>
   <i name="OMEGAMAX">    -30.00000000</i>
   <i name="OMEGAMIN">    -30.00000000</i>
   <i name="OMEGATL">   -200.00000000</i>
   <i type="int" name="OMEGAGRID">   140</i>
   <i name="CSHIFT">     -0.10000000</i>
   <i type="logical" name="SELFENERGY"> F  </i>
   <i type="logical" name="LSPECTRAL"> F  </i>
   <i type="logical" name="LSPECTRALGW"> F  </i>
   <i type="logical" name="LSINGLES"> F  </i>
   <i type="logical" name="LFERMIGW"> F  </i>
   <i type="logical" name="ODDONLYGW"> F  </i>
   <i type="logical" name="EVENONLYGW"> F  </i>
   <i type="int" name="NKREDLFX">     1</i>
   <i type="int" name="NKREDLFY">     1</i>
   <i type="int" name="NKREDLFZ">     1</i>
   <i type="int" name="MAXMEM"> 10000</i>
   <i type="int" name="TELESCOPE">     0</i>
   <i type="int" name="TAUPAR">     1</i>
   <i type="int" name="OMEGAPAR">    -1</i>
   <i name="LAMBDA">      1.00000000</i>
  </separator>
  <separator name="External order field" >
   <i name="OFIELD_KAPPA">      0.00000000</i>
   <v name="OFIELD_K">      0.00000000      0.00000000      0.00000000</v>
   <i name="OFIELD_Q6_NEAR">      0.00000000</i>
   <i name="OFIELD_Q6_FAR">      0.00000000</i>
   <i name="OFIELD_A">      0.00000000</i>
  </separator>
 </parameters>
 <atominfo>
  <atoms>      57 </atoms>
  <types>       3 </types>
  <array name="atoms" >
   <dimension dim="1">ion</dimension>
   <field type="string">element</field>
   <field type="int">atomtype</field>
   <set>
    <rc><c>Pd</c><c>   1</c></rc>
    <rc><c>Pd</c><c>   1</c></rc>
    <rc><c>Pd</c><c>   1</c></rc>
    <rc><c>Pd</c><c>   1</c></rc>
    <rc><c>Pd</c><c>   1</c></rc>
    <rc><c>Pd</c><c>   1</c></rc>
    <rc><c>Pd</c><c>   1</c></rc>
    <rc><c>Pd</c><c>   1</c></rc>
    <rc><c>Pd</c><c>   1</c></rc>
    <rc><c>Pd</c><c>   1</c></rc>
    <rc><c>Pd</c><c>   1</c></rc>
    <rc><c>Pd</c><c>   1</c></rc>
    <rc><c>Pd</c><c>   1</c></rc>
    <rc><c>Pd</c><c>   1</c></rc>
    <rc><c>Pd</c><c>   1</c></rc>
    <rc><c>Pd</c><c>   1</c></rc>
    <rc><c>Pd</c><c>   1</c></rc>
    <rc><c>Pd</c><c>   1</c></rc>
    <rc><c>Pd</c><c>   1</c></rc>
    <rc><c>Pd</c><c>   1</c></rc>
    <rc><c>Pd</c><c>   1</c></rc>
    <rc><c>Pd</c><c>   1</c></rc>
    <rc><c>Pd</c><c>   1</c></rc>
    <rc><c>Pd</c><c>   1</c></rc>
    <rc><c>Pd</c><c>   1</c></rc>
    <rc><c>Pd</c><c>   1</c></rc>
    <rc><c>Pd</c><c>   1</c></rc>
    <rc><c>Pd</c><c>   1</c></rc>
    <rc><c>Pd</c><c>   1</c></rc>
    <rc><c>Pd</c><c>   1</c></rc>
    <rc><c>Pd</c><c>   1</c></rc>
    <rc><c>Pd</c><c>   1</c></rc>
    <rc><c>Pd</c><c>   1</c></rc>
    <rc><c>Pd</c><c>   1</c></rc>
    <rc><c>Pd</c><c>   1</c></rc>
    <rc><c>Pd</c><c>   1</c></rc>
    <rc><c>Pd</c><c>   1</c></rc>
    <rc><c>Pd</c><c>   1</c></rc>
    <rc><c>Pd</c><c>   1</c></rc>
    <rc><c>Pd</c><c>   1</c></rc>
    <rc><c>Pd</c><c>   1</c></rc>
    <rc><c>Pd</c><c>   1</c></rc>
    <rc><c>Pd</c><c>   1</c></rc>
    <rc><c>Pd</c><c>   1</c></rc>
    <rc><c>Pd</c><c>   1</c></rc>
    <rc><c>Pd</c><c>   1</c></rc>
    <rc><c>Pd</c><c>   1</c></rc>
    <rc><c>Pd</c><c>   1</c></rc>
    <rc><c>Pd</c><c>   1</c></rc>
    <rc><c>Pd</c><c>   1</c></rc>
    <rc><c>Pd</c><c>   1</c></rc>
    <rc><c>Pd</c><c>   1</c></rc>
    <rc><c>Pd</c><c>   1</c></rc>
    <rc><c>Pd</c><c>   1</c></rc>
    <rc><c>Pd</c><c>   1</c></rc>
    <rc><c>C </c><c>   2</c></rc>
    <rc><c>O </c><c>   3</c></rc>
   </set>
  </array>
  <array name="atomtypes" >
   <dimension dim="1">type</dimension>
   <field type="int">atomspertype</field>
   <field type="string">element</field>
   <field>mass</field>
   <field>valence</field>
   <field type="string">pseudopotential</field>
   <set>
    <rc><c>  55</c><c>Pd</c><c>    106.42000000</c><c>     10.00000000</c><c>  PAW_PBE Pd 04Jan2005                  </c></rc>
    <rc><c>   1</c><c>C </c><c>     12.01100000</c><c>      4.00000000</c><c>  PAW_PBE C 08Apr2002                   </c></rc>
    <rc><c>   1</c><c>O </c><c>     16.00000000</c><c>      6.00000000</c><c>  PAW_PBE O 08Apr2002                   </c></rc>
   </set>
  </array>
 </atominfo>
 <structure name="initialpos" >
  <crystal>
   <varray name="basis" >
    <v>      30.00000000       0.00000000       0.00000000 </v>
    <v>       0.00000000      30.00000000       0.00000000 </v>
    <v>       0.00000000       0.00000000      30.00000000 </v>
   </varray>
   <i name="volume">  27000.00000000 </i>
   <varray name="rec_basis" >
    <v>       0.03333333       0.00000000       0.00000000 </v>
    <v>       0.00000000       0.03333333       0.00000000 </v>
    <v>       0.00000000       0.00000000       0.03333333 </v>
   </varray>
  </crystal>
  <varray name="positions" >
   <v>       0.44576020       0.32826710       0.41691983 </v>
   <v>       0.67173288       0.55423978       0.41691983 </v>
   <v>       0.55423980       0.32826710       0.41691983 </v>
   <v>       0.32826712       0.55423978       0.41691983 </v>
   <v>       0.50000000       0.38250690       0.34021317 </v>
   <v>       0.50000000       0.38250690       0.65978680 </v>
   <v>       0.50000000       0.27609440       0.50000000 </v>
   <v>       0.27609443       0.49999998       0.50000000 </v>
   <v>       0.72390557       0.49999998       0.50000000 </v>
   <v>       0.50000000       0.72390555       0.50000000 </v>
   <v>       0.61195280       0.38804720       0.34167483 </v>
   <v>       0.61195280       0.38804720       0.65832513 </v>
   <v>       0.38804722       0.61195278       0.34167483 </v>
   <v>       0.38804722       0.61195278       0.65832513 </v>
   <v>       0.38804720       0.38804720       0.34167483 </v>
   <v>       0.38804720       0.38804720       0.65832513 </v>
   <v>       0.61195278       0.61195278       0.34167483 </v>
   <v>       0.61195278       0.61195278       0.65832513 </v>
   <v>       0.44576020       0.32826710       0.58308023 </v>
   <v>       0.67173288       0.55423978       0.58308023 </v>
   <v>       0.55791699       0.44208301       0.41809300 </v>
   <v>       0.32826705       0.44576024       0.41691983 </v>
   <v>       0.55423973       0.67173293       0.41691983 </v>
   <v>       0.55423980       0.32826710       0.58308023 </v>
   <v>       0.32826712       0.55423978       0.58308023 </v>
   <v>       0.67173295       0.44576024       0.41691983 </v>
   <v>       0.44576027       0.67173293       0.41691983 </v>
   <v>       0.44208301       0.44208301       0.41809300 </v>
   <v>       0.50000000       0.38416601       0.50000000 </v>
   <v>       0.61749315       0.50000005       0.34021317 </v>
   <v>       0.61749315       0.50000005       0.65978680 </v>
   <v>       0.38250685       0.50000005       0.34021317 </v>
   <v>       0.38250685       0.50000005       0.65978680 </v>
   <v>       0.38317830       0.38317830       0.50000000 </v>
   <v>       0.61682172       0.61682172       0.50000000 </v>
   <v>       0.61682170       0.38317830       0.50000000 </v>
   <v>       0.38317828       0.61682172       0.50000000 </v>
   <v>       0.50000000       0.50000000       0.33478917 </v>
   <v>       0.50000000       0.50000000       0.66521087 </v>
   <v>       0.32826705       0.44576024       0.58308023 </v>
   <v>       0.55423973       0.67173293       0.58308023 </v>
   <v>       0.55791699       0.44208301       0.58190703 </v>
   <v>       0.44208298       0.55791702       0.41809300 </v>
   <v>       0.44208301       0.44208301       0.58190703 </v>
   <v>       0.67173295       0.44576024       0.58308023 </v>
   <v>       0.44576027       0.67173293       0.58308023 </v>
   <v>       0.55791702       0.55791702       0.41809300 </v>
   <v>       0.38416599       0.50000002       0.50000000 </v>
   <v>       0.61583401       0.50000002       0.50000000 </v>
   <v>       0.50000000       0.61749319       0.34021317 </v>
   <v>       0.50000000       0.61749319       0.65978680 </v>
   <v>       0.50000000       0.50000000       0.50000000 </v>
   <v>       0.44208298       0.55791702       0.58190703 </v>
   <v>       0.55791702       0.55791702       0.58190703 </v>
   <v>       0.50000000       0.61583404       0.50000000 </v>
   <v>       0.51138870       0.51632463       0.72992687 </v>
   <v>       0.51324417       0.51898427       0.76738677 </v>
  </varray>
  <varray name="selective"  type="logical" >
   <v type="logical" >  F  F  F </v>
   <v type="logical" >  F  F  F </v>
   <v type="logical" >  F  F  F </v>
   <v type="logical" >  F  F  F </v>
   <v type="logical" >  F  F  F </v>
   <v type="logical" >  F  F  F </v>
   <v type="logical" >  F  F  F </v>
   <v type="logical" >  F  F  F </v>
   <v type="logical" >  F  F  F </v>
   <v type="logical" >  F  F  F </v>
   <v type="logical" >  F  F  F </v>
   <v type="logical" >  F  F  F </v>
   <v type="logical" >  F  F  F </v>
   <v type="logical" >  F  F  F </v>
   <v type="logical" >  F  F  F </v>
   <v type="logical" >  F  F  F </v>
   <v type="logical" >  F  F  F </v>
   <v type="logical" >  F  F  F </v>
   <v type="logical" >  F  F  F </v>
   <v type="logical" >  F  F  F </v>
   <v type="logical" >  F  F  F </v>
   <v type="logical" >  F  F  F </v>
   <v type="logical" >  F  F  F </v>
   <v type="logical" >  F  F  F </v>
   <v type="logical" >  F  F  F </v>
   <v type="logical" >  F  F  F </v>
   <v type="logical" >  F  F  F </v>
   <v type="logical" >  F  F  F </v>
   <v type="logical" >  F  F  F </v>
   <v type="logical" >  F  F  F </v>
   <v type="logical" >  F  F  F </v>
   <v type="logical" >  F  F  F </v>
   <v type="logical" >  F  F  F </v>
   <v type="logical" >  F  F  F </v>
   <v type="logical" >  F  F  F </v>
   <v type="logical" >  F  F  F </v>
   <v type="logical" >  F  F  F </v>
   <v type="logical" >  F  F  F </v>
   <v type="logical" >  F  F  F </v>
   <v type="logical" >  F  F  F </v>
   <v type="logical" >  F  F  F </v>
   <v type="logical" >  F  F  F </v>
   <v type="logical" >  F  F  F </v>
   <v type="logical" >  F  F  F </v>
   <v type="logical" >  F  F  F </v>
   <v type="logical" >  F  F  F </v>
   <v type="logical" >  F  F  F </v>
   <v type="logical" >  F  F  F </v>
   <v type="logical" >  F  F  F </v>
   <v type="logical" >  F  F  F </v>
   <v type="logical" >  F  F  F </v>
   <v type="logical" >  F  F  F </v>
   <v type="logical" >  F  F  F </v>
   <v type="logical" >  F  F  F </v>
   <v type="logical" >  F  F  F </v>
   <v type="logical" >  F  F  F </v>
   <v type="logical" >  F  F  F </v>
  </varray>
  <nose>
   <v>      -3.00000000       0.00000000       0.00010000       0.00010000 </v>
  </nose>
 </structure>
 <calculation>
  <scstep>
   <time name="dav">  337.74  337.77</time>
   <time name="total">  351.12  351.16</time>
   <energy>
    <i name="alphaZ">     75.25431677 </i>
    <i name="ewald"> 138553.99335108 </i>
    <i name="hartreedc">-181916.66800750 </i>
    <i name="XCdc">  -1703.29578692 </i>
    <i name="pawpsdc">  44873.02882129 </i>
    <i name="pawaedc"> -41398.84523641 </i>
    <i name="eentropy">      0.01485993 </i>
    <i name="bandstr">    819.06437734 </i>
    <i name="atom">  45086.50549395 </i>
    <i name="e_fr_energy">   4389.05218953 </i>
    <i name="e_wo_entrp">   4389.03732961 </i>
    <i name="e_0_energy">   4389.04847455 </i>
   </energy>
  </scstep>
  <scstep>
   <time name="dav">  534.08  534.08</time>
   <time name="total">  534.08  534.08</time>
   <energy>
    <i name="e_fr_energy">   2028.46757454 </i>
    <i name="e_wo_entrp">   2028.49739901 </i>
    <i name="e_0_energy">   2028.47503066 </i>
   </energy>
  </scstep>
  <scstep>
   <time name="dav">  459.46  459.46</time>
   <time name="total">  459.46  459.46</time>
   <energy>
    <i name="e_fr_energy">    240.64484147 </i>
    <i name="e_wo_entrp">    240.60190000 </i>
    <i name="e_0_energy">    240.63410610 </i>
   </energy>
  </scstep>
  <scstep>
   <time name="dav">  394.29  394.29</time>
   <time name="total">  394.29  394.29</time>
   <energy>
    <i name="e_fr_energy">   -132.98538297 </i>
    <i name="e_wo_entrp">   -132.90442346 </i>
    <i name="e_0_energy">   -132.96514309 </i>
   </energy>
  </scstep>
  <scstep>
   <time name="dav">  481.03  481.04</time>
   <time name="total">  505.52  505.52</time>
   <energy>
    <i name="e_fr_energy">   -179.69077447 </i>
    <i name="e_wo_entrp">   -180.20370595 </i>
    <i name="e_0_energy">   -179.81900734 </i>
   </energy>
  </scstep>
  <scstep>
   <time name="diag">   64.53   64.53</time>
   <time name="diis">  177.08  177.08</time>
   <time name="orth">   12.67   12.67</time>
   <time name="total">  290.97  290.97</time>
   <energy>
    <i name="e_fr_energy">   -180.74686832 </i>
    <i name="e_wo_entrp">   -180.55910217 </i>
    <i name="e_0_energy">   -180.69992679 </i>
   </energy>
  </scstep>
  <scstep>
   <time name="diag">   64.36   64.36</time>
   <time name="diis">  208.08  208.08</time>
   <time name="orth">   13.07   13.07</time>
   <time name="total">  323.05  323.06</time>
   <energy>
    <i name="e_fr_energy">   -181.98928041 </i>
    <i name="e_wo_entrp">   -181.88392463 </i>
    <i name="e_0_energy">   -181.96294147 </i>
   </energy>
  </scstep>
  <scstep>
   <time name="diag">   67.17   67.17</time>
   <time name="diis">  203.35  203.36</time>
   <time name="orth">   13.34   13.34</time>
   <time name="total">  322.58  322.60</time>
   <energy>
    <i name="e_fr_energy">   -184.43950274 </i>
    <i name="e_wo_entrp">   -184.27910606 </i>
    <i name="e_0_energy">   -184.39940357 </i>
   </energy>
  </scstep>
  <scstep>
   <time name="diag">   67.79   67.79</time>
   <time name="diis">  189.60  189.61</time>
   <time name="orth">   13.40   13.40</time>
   <time name="total">  310.11  310.13</time>
   <energy>
    <i name="e_fr_energy">   -182.53976572 </i>
    <i name="e_wo_entrp">   -182.55492472 </i>
    <i name="e_0_energy">   -182.54355547 </i>
   </energy>
  </scstep>
  <scstep>
   <time name="diag">   67.72   67.72</time>
   <time name="diis">  192.12  192.14</time>
   <time name="orth">   13.45   13.45</time>
   <time name="total">  312.93  312.96</time>
   <energy>
    <i name="e_fr_energy">   -179.58569438 </i>
    <i name="e_wo_entrp">   -179.48721761 </i>
    <i name="e_0_energy">   -179.56107519 </i>
   </energy>
  </scstep>
  <scstep>
   <time name="diag">   68.11   68.11</time>
   <time name="diis">  190.97  190.97</time>
   <time name="orth">   13.58   13.58</time>
   <time name="total">  312.84  312.84</time>
   <energy>
    <i name="e_fr_energy">   -178.48045822 </i>
    <i name="e_wo_entrp">   -178.37309577 </i>
    <i name="e_0_energy">   -178.45361761 </i>
   </energy>
  </scstep>
  <scstep>
   <time name="diag">   69.52   69.52</time>
   <time name="diis">  186.97  186.97</time>
   <time name="orth">   13.55   13.55</time>
   <time name="total">  310.31  310.31</time>
   <energy>
    <i name="e_fr_energy">   -177.37610365 </i>
    <i name="e_wo_entrp">   -177.29525264 </i>
    <i name="e_0_energy">   -177.35589090 </i>
   </energy>
  </scstep>
  <scstep>
   <time name="diag">   69.50   69.50</time>
   <time name="diis">  186.35  186.35</time>
   <time name="orth">   13.56   13.56</time>
   <time name="total">  309.62  309.63</time>
   <energy>
    <i name="e_fr_energy">   -177.53300604 </i>
    <i name="e_wo_entrp">   -177.54665214 </i>
    <i name="e_0_energy">   -177.53641757 </i>
   </energy>
  </scstep>
  <scstep>
   <time name="diag">   69.20   69.20</time>
   <time name="diis">  185.23  185.24</time>
   <time name="orth">   13.57   13.57</time>
   <time name="total">  308.31  308.32</time>
   <energy>
    <i name="e_fr_energy">   -177.11033200 </i>
    <i name="e_wo_entrp">   -177.11227707 </i>
    <i name="e_0_energy">   -177.11081827 </i>
   </energy>
  </scstep>
  <scstep>
   <time name="diag">   69.21   69.21</time>
   <time name="diis">  184.59  184.59</time>
   <time name="orth">   13.55   13.55</time>
   <time name="total">  307.66  307.67</time>
   <energy>
    <i name="e_fr_energy">   -176.36385281 </i>
    <i name="e_wo_entrp">   -176.32941196 </i>
    <i name="e_0_energy">   -176.35524260 </i>
   </energy>
  </scstep>
  <scstep>
   <time name="diag">   70.14   70.14</time>
   <time name="diis">  188.83  188.84</time>
   <time name="orth">   13.51   13.51</time>
   <time name="total">  312.87  312.88</time>
   <energy>
    <i name="e_fr_energy">   -176.03064484 </i>
    <i name="e_wo_entrp">   -175.98886094 </i>
    <i name="e_0_energy">   -176.02019887 </i>
   </energy>
  </scstep>
  <scstep>
   <time name="diag">   70.05   70.06</time>
   <time name="diis">  192.31  192.32</time>
   <time name="orth">   13.90   13.90</time>
   <time name="total">  316.37  316.38</time>
   <energy>
    <i name="e_fr_energy">   -175.97565719 </i>
    <i name="e_wo_entrp">   -175.94839756 </i>
    <i name="e_0_energy">   -175.96884228 </i>
   </energy>
  </scstep>
  <scstep>
   <time name="diag">   69.19   69.19</time>
   <time name="diis">  191.79  191.79</time>
   <time name="orth">   14.11   14.11</time>
   <time name="total">  316.20  316.20</time>
   <energy>
    <i name="e_fr_energy">   -176.01554876 </i>
    <i name="e_wo_entrp">   -176.06539119 </i>
    <i name="e_0_energy">   -176.02800937 </i>
   </energy>
  </scstep>
  <scstep>
   <time name="diag">   69.19   69.19</time>
   <time name="diis">  190.69  190.70</time>
   <time name="orth">   14.03   14.03</time>
   <time name="total">  314.90  314.90</time>
   <energy>
    <i name="e_fr_energy">   -175.84995135 </i>
    <i name="e_wo_entrp">   -175.92019233 </i>
    <i name="e_0_energy">   -175.86751160 </i>
   </energy>
  </scstep>
  <scstep>
   <time name="diag">   69.16   69.16</time>
   <time name="diis">  185.94  185.94</time>
   <time name="orth">   13.65   13.65</time>
   <time name="total">  310.15  310.15</time>
   <energy>
    <i name="e_fr_energy">   -175.54462920 </i>
    <i name="e_wo_entrp">   -175.53469798 </i>
    <i name="e_0_energy">   -175.54214639 </i>
   </energy>
  </scstep>
  <scstep>
   <time name="diag">   69.34   69.34</time>
   <time name="diis">  187.64  187.64</time>
   <time name="orth">   13.94   13.94</time>
   <time name="total">  312.06  312.07</time>
   <energy>
    <i name="e_fr_energy">   -175.34462622 </i>
    <i name="e_wo_entrp">   -175.29018830 </i>
    <i name="e_0_energy">   -175.33101674 </i>
   </energy>
  </scstep>
  <scstep>
   <time name="diag">   69.17   69.17</time>
   <time name="diis">  185.30  185.30</time>
   <time name="orth">   13.99   13.99</time>
   <time name="total">  309.68  309.68</time>
   <energy>
    <i name="e_fr_energy">   -175.24953659 </i>
    <i name="e_wo_entrp">   -175.19828761 </i>
    <i name="e_0_energy">   -175.23672434 </i>
   </energy>
  </scstep>
  <scstep>
   <time name="diag">   69.76   69.76</time>
   <time name="diis">  186.18  186.19</time>
   <time name="orth">   13.99   13.99</time>
   <time name="total">  311.53  311.55</time>
   <energy>
    <i name="e_fr_energy">   -175.21209577 </i>
    <i name="e_wo_entrp">   -175.16446907 </i>
    <i name="e_0_energy">   -175.20018909 </i>
   </energy>
  </scstep>
  <scstep>
   <time name="diag">   69.56   69.57</time>
   <time name="diis">  184.94  184.94</time>
   <time name="orth">   13.90   13.90</time>
   <time name="total">  310.01  310.02</time>
   <energy>
    <i name="e_fr_energy">   -175.12886543 </i>
    <i name="e_wo_entrp">   -175.08563793 </i>
    <i name="e_0_energy">   -175.11805856 </i>
   </energy>
  </scstep>
  <scstep>
   <time name="diag">   70.04   70.04</time>
   <time name="diis">  183.57  183.58</time>
   <time name="orth">   13.92   13.92</time>
   <time name="total">  309.49  309.50</time>
   <energy>
    <i name="e_fr_energy">   -175.08081641 </i>
    <i name="e_wo_entrp">   -175.06109921 </i>
    <i name="e_0_energy">   -175.07588711 </i>
   </energy>
  </scstep>
  <scstep>
   <time name="diag">   69.85   69.85</time>
   <time name="diis">  184.97  184.97</time>
   <time name="orth">   14.06   14.06</time>
   <time name="total">  311.04  311.05</time>
   <energy>
    <i name="e_fr_energy">   -175.03467075 </i>
    <i name="e_wo_entrp">   -174.99419887 </i>
    <i name="e_0_energy">   -175.02455278 </i>
   </energy>
  </scstep>
  <scstep>
   <time name="diag">   70.16   70.16</time>
   <time name="diis">  184.61  184.61</time>
   <time name="orth">   14.03   14.03</time>
   <time name="total">  310.88  310.89</time>
   <energy>
    <i name="e_fr_energy">   -175.01418501 </i>
    <i name="e_wo_entrp">   -174.96712759 </i>
    <i name="e_0_energy">   -175.00242066 </i>
   </energy>
  </scstep>
  <scstep>
   <time name="diag">   70.36   70.36</time>
   <time name="diis">  184.28  184.28</time>
   <time name="orth">   14.20   14.20</time>
   <time name="total">  311.25  311.25</time>
   <energy>
    <i name="e_fr_energy">   -175.01202256 </i>
    <i name="e_wo_entrp">   -174.97412135 </i>
    <i name="e_0_energy">   -175.00254726 </i>
   </energy>
  </scstep>
  <scstep>
   <time name="diag">   70.16   70.16</time>
   <time name="diis">  183.70  183.71</time>
   <time name="orth">   14.11   14.11</time>
   <time name="total">  310.52  310.52</time>
   <energy>
    <i name="e_fr_energy">   -175.00923818 </i>
    <i name="e_wo_entrp">   -174.96274464 </i>
    <i name="e_0_energy">   -174.99761479 </i>
   </energy>
  </scstep>
  <scstep>
   <time name="diag">   69.95   69.95</time>
   <time name="diis">  183.38  183.38</time>
   <time name="orth">   14.13   14.13</time>
   <time name="total">  310.10  310.10</time>
   <energy>
    <i name="e_fr_energy">   -174.97920831 </i>
    <i name="e_wo_entrp">   -174.91723224 </i>
    <i name="e_0_energy">   -174.96371429 </i>
   </energy>
  </scstep>
  <scstep>
   <time name="diag">   70.29   70.29</time>
   <time name="diis">  183.35  183.35</time>
   <time name="orth">   14.21   14.21</time>
   <time name="total">  310.50  310.50</time>
   <energy>
    <i name="e_fr_energy">   -174.97369432 </i>
    <i name="e_wo_entrp">   -174.92008429 </i>
    <i name="e_0_energy">   -174.96029181 </i>
   </energy>
  </scstep>
  <scstep>
   <time name="diag">   70.57   70.58</time>
   <time name="diis">  184.28  184.29</time>
   <time name="orth">   14.20   14.20</time>
   <time name="total">  311.84  311.86</time>
   <energy>
    <i name="e_fr_energy">   -174.97243480 </i>
    <i name="e_wo_entrp">   -174.91997312 </i>
    <i name="e_0_energy">   -174.95931938 </i>
   </energy>
  </scstep>
  <scstep>
   <time name="diag">   70.45   70.45</time>
   <time name="diis">  182.68  182.68</time>
   <time name="orth">   14.15   14.15</time>
   <time name="total">  310.33  310.33</time>
   <energy>
    <i name="e_fr_energy">   -174.96916197 </i>
    <i name="e_wo_entrp">   -174.91441532 </i>
    <i name="e_0_energy">   -174.95547531 </i>
   </energy>
  </scstep>
  <scstep>
   <time name="diag">   70.52   70.52</time>
   <time name="diis">  183.22  183.22</time>
   <time name="orth">   14.17   14.17</time>
   <time name="total">  310.74  310.74</time>
   <energy>
    <i name="e_fr_energy">   -174.96931872 </i>
    <i name="e_wo_entrp">   -174.91412399 </i>
    <i name="e_0_energy">   -174.95552004 </i>
   </energy>
  </scstep>
  <scstep>
   <time name="diag">   70.37   70.37</time>
   <time name="diis">  184.08  184.08</time>
   <time name="orth">   14.13   14.13</time>
   <time name="total">  311.50  311.50</time>
   <energy>
    <i name="e_fr_energy">   -174.97086375 </i>
    <i name="e_wo_entrp">   -174.91830759 </i>
    <i name="e_0_energy">   -174.95772471 </i>
   </energy>
  </scstep>
  <scstep>
   <time name="diag">   70.02   70.02</time>
   <time name="diis">  182.75  182.75</time>
   <time name="orth">   14.15   14.15</time>
   <time name="total">  310.12  310.13</time>
   <energy>
    <i name="e_fr_energy">   -174.97102023 </i>
    <i name="e_wo_entrp">   -174.91937960 </i>
    <i name="e_0_energy">   -174.95811007 </i>
   </energy>
  </scstep>
  <scstep>
   <time name="diag">   70.16   70.16</time>
   <time name="diis">  182.52  182.52</time>
   <time name="orth">   14.06   14.06</time>
   <time name="total">  309.98  309.98</time>
   <energy>
    <i name="e_fr_energy">   -174.97308587 </i>
    <i name="e_wo_entrp">   -174.92178501 </i>
    <i name="e_0_energy">   -174.96026065 </i>
   </energy>
  </scstep>
  <scstep>
   <time name="diag">   69.24   69.24</time>
   <time name="diis">  182.92  182.92</time>
   <time name="orth">   13.86   13.86</time>
   <time name="total">  308.85  308.85</time>
   <energy>
    <i name="e_fr_energy">   -174.97585444 </i>
    <i name="e_wo_entrp">   -174.92406467 </i>
    <i name="e_0_energy">   -174.96290700 </i>
   </energy>
  </scstep>
  <scstep>
   <time name="diag">   68.92   68.92</time>
   <time name="diis">  156.40  156.40</time>
   <time name="orth">   13.96   13.96</time>
   <time name="total">  282.30  282.30</time>
   <energy>
    <i name="e_fr_energy">   -174.97708405 </i>
    <i name="e_wo_entrp">   -174.92644198 </i>
    <i name="e_0_energy">   -174.96442353 </i>
   </energy>
  </scstep>
  <scstep>
   <time name="diag">   68.93   68.93</time>
   <time name="diis">  175.50  175.50</time>
   <time name="orth">   13.76   13.76</time>
   <time name="total">  301.46  301.46</time>
   <energy>
    <i name="e_fr_energy">   -174.98123599 </i>
    <i name="e_wo_entrp">   -174.92995768 </i>
    <i name="e_0_energy">   -174.96841641 </i>
   </energy>
  </scstep>
  <scstep>
   <time name="diag">   69.56   69.56</time>
   <time name="diis">  140.04  140.04</time>
   <time name="orth">   13.50   13.50</time>
   <time name="total">  265.48  265.49</time>
   <energy>
    <i name="e_fr_energy">   -174.98297178 </i>
    <i name="e_wo_entrp">   -174.93145163 </i>
    <i name="e_0_energy">   -174.97009174 </i>
   </energy>
  </scstep>
  <scstep>
   <time name="diag">   70.60   70.60</time>
   <time name="diis">  126.93  126.93</time>
   <time name="orth">   13.45   13.45</time>
   <time name="total">  253.40  253.41</time>
   <energy>
    <i name="e_fr_energy">   -174.98501449 </i>
    <i name="e_wo_entrp">   -174.93383388 </i>
    <i name="e_0_energy">   -174.97221934 </i>
   </energy>
  </scstep>
  <scstep>
   <time name="diag">   69.41   69.41</time>
   <time name="diis">  125.31  125.31</time>
   <time name="orth">   13.62   13.62</time>
   <time name="total">  250.27  250.28</time>
   <energy>
    <i name="e_fr_energy">   -174.98692592 </i>
    <i name="e_wo_entrp">   -174.93511996 </i>
    <i name="e_0_energy">   -174.97397443 </i>
   </energy>
  </scstep>
  <scstep>
   <time name="diag">   68.50   68.50</time>
   <time name="diis">  120.85  120.85</time>
   <time name="orth">   13.85   13.85</time>
   <time name="total">  245.78  245.78</time>
   <energy>
    <i name="e_fr_energy">   -174.98776790 </i>
    <i name="e_wo_entrp">   -174.93596656 </i>
    <i name="e_0_energy">   -174.97481757 </i>
   </energy>
  </scstep>
  <scstep>
   <time name="diag">   67.86   67.86</time>
   <time name="diis">  118.98  118.98</time>
   <time name="orth">   13.90   13.90</time>
   <time name="total">  244.36  244.36</time>
   <energy>
    <i name="e_fr_energy">   -174.98973025 </i>
    <i name="e_wo_entrp">   -174.93795798 </i>
    <i name="e_0_energy">   -174.97678718 </i>
   </energy>
  </scstep>
  <scstep>
   <time name="diag">   68.89   68.89</time>
   <time name="diis">  115.94  115.94</time>
   <time name="orth">   13.78   13.78</time>
   <time name="total">  242.71  242.72</time>
   <energy>
    <i name="e_fr_energy">   -174.99090823 </i>
    <i name="e_wo_entrp">   -174.93874319 </i>
    <i name="e_0_energy">   -174.97786697 </i>
   </energy>
  </scstep>
  <scstep>
   <time name="diag">   69.74   69.74</time>
   <time name="diis">  117.69  117.69</time>
   <time name="orth">   13.45   13.45</time>
   <time name="total">  244.60  244.60</time>
   <energy>
    <i name="e_fr_energy">   -174.99247276 </i>
    <i name="e_wo_entrp">   -174.94102902 </i>
    <i name="e_0_energy">   -174.97961183 </i>
   </energy>
  </scstep>
  <scstep>
   <time name="diag">   70.56   70.56</time>
   <time name="diis">  116.88  116.88</time>
   <time name="orth">   13.47   13.47</time>
   <time name="total">  244.16  244.16</time>
   <energy>
    <i name="e_fr_energy">   -174.99362898 </i>
    <i name="e_wo_entrp">   -174.94232303 </i>
    <i name="e_0_energy">   -174.98080249 </i>
   </energy>
  </scstep>
  <scstep>
   <time name="diag">   68.99   68.99</time>
   <time name="diis">  118.71  118.71</time>
   <time name="orth">   13.83   13.83</time>
   <time name="total">  244.76  244.76</time>
   <energy>
    <i name="e_fr_energy">   -174.99430851 </i>
    <i name="e_wo_entrp">   -174.94303386 </i>
    <i name="e_0_energy">   -174.98148984 </i>
   </energy>
  </scstep>
  <scstep>
   <time name="diag">   67.48   67.48</time>
   <time name="diis">  118.89  118.89</time>
   <time name="orth">   13.62   13.62</time>
   <time name="total">  244.16  244.16</time>
   <energy>
    <i name="e_fr_energy">   -174.99501113 </i>
    <i name="e_wo_entrp">   -174.94378945 </i>
    <i name="e_0_energy">   -174.98220571 </i>
   </energy>
  </scstep>
  <scstep>
   <time name="diag">   67.70   67.71</time>
   <time name="diis">  114.23  114.23</time>
   <time name="orth">   13.93   13.93</time>
   <time name="total">  239.74  239.74</time>
   <energy>
    <i name="e_fr_energy">   -174.99528951 </i>
    <i name="e_wo_entrp">   -174.94370143 </i>
    <i name="e_0_energy">   -174.98239249 </i>
   </energy>
  </scstep>
  <scstep>
   <time name="diag">   68.13   68.13</time>
   <time name="diis">  113.34  113.34</time>
   <time name="orth">   13.67   13.67</time>
   <time name="total">  238.83  238.83</time>
   <energy>
    <i name="e_fr_energy">   -174.99592644 </i>
    <i name="e_wo_entrp">   -174.94452568 </i>
    <i name="e_0_energy">   -174.98307625 </i>
   </energy>
  </scstep>
  <scstep>
   <time name="diag">   68.43   68.43</time>
   <time name="diis">   90.99   90.99</time>
   <time name="orth">   13.44   13.44</time>
   <time name="total">  216.82  216.83</time>
   <energy>
    <i name="e_fr_energy">   -174.99615216 </i>
    <i name="e_wo_entrp">   -174.94479621 </i>
    <i name="e_0_energy">   -174.98331317 </i>
   </energy>
  </scstep>
  <scstep>
   <time name="diag">   67.85   67.85</time>
   <time name="diis">   97.10   97.10</time>
   <time name="orth">   13.90   13.90</time>
   <time name="total">  222.73  222.73</time>
   <energy>
    <i name="e_fr_energy">   -174.99668011 </i>
    <i name="e_wo_entrp">   -174.94521127 </i>
    <i name="e_0_energy">   -174.98381290 </i>
   </energy>
  </scstep>
  <scstep>
   <time name="diag">   67.41   67.41</time>
   <time name="diis">   79.82   79.82</time>
   <time name="orth">   13.80   13.80</time>
   <time name="total">  204.77  204.77</time>
   <energy>
    <i name="e_fr_energy">   -174.99686865 </i>
    <i name="e_wo_entrp">   -174.94543239 </i>
    <i name="e_0_energy">   -174.98400959 </i>
   </energy>
  </scstep>
  <scstep>
   <time name="diag">   68.75   68.75</time>
   <time name="diis">   94.90   94.90</time>
   <time name="orth">   13.61   13.61</time>
   <time name="total">  220.90  220.91</time>
   <energy>
    <i name="e_fr_energy">   -174.99722722 </i>
    <i name="e_wo_entrp">   -174.94583881 </i>
    <i name="e_0_energy">   -174.98438011 </i>
   </energy>
  </scstep>
  <scstep>
   <time name="diag">   69.06   69.06</time>
   <time name="diis">   88.76   88.77</time>
   <time name="orth">   13.35   13.35</time>
   <time name="total">  214.50  214.51</time>
   <energy>
    <i name="e_fr_energy">   -174.99752507 </i>
    <i name="e_wo_entrp">   -174.94611275 </i>
    <i name="e_0_energy">   -174.98467199 </i>
   </energy>
  </scstep>
  <scstep>
   <time name="diag">   68.70   68.71</time>
   <time name="diis">   85.19   85.20</time>
   <time name="orth">   13.21   13.21</time>
   <time name="total">  209.79  209.81</time>
   <energy>
    <i name="e_fr_energy">   -174.99768776 </i>
    <i name="e_wo_entrp">   -174.94626679 </i>
    <i name="e_0_energy">   -174.98483252 </i>
   </energy>
  </scstep>
  <scstep>
   <time name="diag">   68.29   68.29</time>
   <time name="diis">   80.04   80.05</time>
   <time name="orth">   13.36   13.36</time>
   <time name="total">  204.68  204.71</time>
   <energy>
    <i name="e_fr_energy">   -174.99781222 </i>
    <i name="e_wo_entrp">   -174.94640731 </i>
    <i name="e_0_energy">   -174.98496100 </i>
   </energy>
  </scstep>
  <scstep>
   <time name="diag">   67.38   67.38</time>
   <time name="diis">   78.02   78.03</time>
   <time name="orth">   13.82   13.82</time>
   <time name="total">  172.94  172.95</time>
   <energy>
    <i name="alphaZ">     75.25431677 </i>
    <i name="ewald"> 138553.99335108 </i>
    <i name="hartreedc">-182918.08311665 </i>
    <i name="XCdc">  -1692.57828619 </i>
    <i name="pawpsdc">  46143.35087665 </i>
    <i name="pawaedc"> -42613.81672154 </i>
    <i name="eentropy">     -0.05137440 </i>
    <i name="bandstr">  -2809.57241974 </i>
    <i name="atom">  45086.50549395 </i>
    <i name="e_fr_energy">   -174.99788007 </i>
    <i name="e_wo_entrp">   -174.94650567 </i>
    <i name="e_0_energy">   -174.98503647 </i>
   </energy>
  </scstep>
  <structure>
   <crystal>
    <varray name="basis" >
     <v>      30.00000000       0.00000000       0.00000000 </v>
     <v>       0.00000000      30.00000000       0.00000000 </v>
     <v>       0.00000000       0.00000000      30.00000000 </v>
    </varray>
    <i name="volume">  27000.00000000 </i>
    <varray name="rec_basis" >
     <v>       0.03333333       0.00000000       0.00000000 </v>
     <v>       0.00000000       0.03333333       0.00000000 </v>
     <v>       0.00000000       0.00000000       0.03333333 </v>
    </varray>
   </crystal>
   <varray name="positions" >
    <v>       0.44576020       0.32826710       0.41691983 </v>
    <v>       0.67173288       0.55423978       0.41691983 </v>
    <v>       0.55423980       0.32826710       0.41691983 </v>
    <v>       0.32826712       0.55423978       0.41691983 </v>
    <v>       0.50000000       0.38250690       0.34021317 </v>
    <v>       0.50000000       0.38250690       0.65978680 </v>
    <v>       0.50000000       0.27609440       0.50000000 </v>
    <v>       0.27609443       0.49999998       0.50000000 </v>
    <v>       0.72390557       0.49999998       0.50000000 </v>
    <v>       0.50000000       0.72390555       0.50000000 </v>
    <v>       0.61195280       0.38804720       0.34167483 </v>
    <v>       0.61195280       0.38804720       0.65832513 </v>
    <v>       0.38804722       0.61195278       0.34167483 </v>
    <v>       0.38804722       0.61195278       0.65832513 </v>
    <v>       0.38804720       0.38804720       0.34167483 </v>
    <v>       0.38804720       0.38804720       0.65832513 </v>
    <v>       0.61195278       0.61195278       0.34167483 </v>
    <v>       0.61195278       0.61195278       0.65832513 </v>
    <v>       0.44576020       0.32826710       0.58308023 </v>
    <v>       0.67173288       0.55423978       0.58308023 </v>
    <v>       0.55791699       0.44208301       0.41809300 </v>
    <v>       0.32826705       0.44576024       0.41691983 </v>
    <v>       0.55423973       0.67173293       0.41691983 </v>
    <v>       0.55423980       0.32826710       0.58308023 </v>
    <v>       0.32826712       0.55423978       0.58308023 </v>
    <v>       0.67173295       0.44576024       0.41691983 </v>
    <v>       0.44576027       0.67173293       0.41691983 </v>
    <v>       0.44208301       0.44208301       0.41809300 </v>
    <v>       0.50000000       0.38416601       0.50000000 </v>
    <v>       0.61749315       0.50000005       0.34021317 </v>
    <v>       0.61749315       0.50000005       0.65978680 </v>
    <v>       0.38250685       0.50000005       0.34021317 </v>
    <v>       0.38250685       0.50000005       0.65978680 </v>
    <v>       0.38317830       0.38317830       0.50000000 </v>
    <v>       0.61682172       0.61682172       0.50000000 </v>
    <v>       0.61682170       0.38317830       0.50000000 </v>
    <v>       0.38317828       0.61682172       0.50000000 </v>
    <v>       0.50000000       0.50000000       0.33478917 </v>
    <v>       0.50000000       0.50000000       0.66521087 </v>
    <v>       0.32826705       0.44576024       0.58308023 </v>
    <v>       0.55423973       0.67173293       0.58308023 </v>
    <v>       0.55791699       0.44208301       0.58190703 </v>
    <v>       0.44208298       0.55791702       0.41809300 </v>
    <v>       0.44208301       0.44208301       0.58190703 </v>
    <v>       0.67173295       0.44576024       0.58308023 </v>
    <v>       0.44576027       0.67173293       0.58308023 </v>
    <v>       0.55791702       0.55791702       0.41809300 </v>
    <v>       0.38416599       0.50000002       0.50000000 </v>
    <v>       0.61583401       0.50000002       0.50000000 </v>
    <v>       0.50000000       0.61749319       0.34021317 </v>
    <v>       0.50000000       0.61749319       0.65978680 </v>
    <v>       0.50000000       0.50000000       0.50000000 </v>
    <v>       0.44208298       0.55791702       0.58190703 </v>
    <v>       0.55791702       0.55791702       0.58190703 </v>
    <v>       0.50000000       0.61583404       0.50000000 </v>
    <v>       0.51138870       0.51632463       0.72992687 </v>
    <v>       0.51324417       0.51898427       0.76738677 </v>
   </varray>
  </structure>
  <varray name="forces" >
   <v>       0.69829790       1.10820114       0.29011555 </v>
   <v>      -1.10957217      -0.69918193       0.28739422 </v>
   <v>      -0.69881092       1.10751166       0.28913484 </v>
   <v>       1.10779425      -0.69925995       0.28882119 </v>
   <v>       0.00088494       0.40215461       1.28152251 </v>
   <v>      -0.00387347       0.38216420      -1.33002378 </v>
   <v>       0.00135305       1.50976141       0.00644804 </v>
   <v>       1.50988827       0.00172627       0.00734950 </v>
   <v>      -1.50732454       0.00202383       0.01158831 </v>
   <v>       0.00174449      -1.50706243       0.01267733 </v>
   <v>      -0.75152496       0.75403521       1.07438669 </v>
   <v>      -0.74635340       0.74402553      -1.07409725 </v>
   <v>       0.75419358      -0.75164234       1.07392074 </v>
   <v>       0.74141349      -0.74444320      -1.07438922 </v>
   <v>       0.75238478       0.75274627       1.07475081 </v>
   <v>       0.74953494       0.74925096      -1.07219260 </v>
   <v>      -0.75370664      -0.75337405       1.07352294 </v>
   <v>      -0.73563472      -0.73669864      -1.07569628 </v>
   <v>       0.70091715       1.10572697      -0.28745800 </v>
   <v>      -1.09874165      -0.70132762      -0.29720699 </v>
   <v>       0.11354418      -0.11416104      -0.15193838 </v>
   <v>       1.10911275       0.69794947       0.28997139 </v>
   <v>      -0.69874259      -1.11019710       0.28701186 </v>
   <v>      -0.69895680       1.10414500      -0.29135146 </v>
   <v>       1.10324286      -0.69949181      -0.29319041 </v>
   <v>      -1.11031531       0.69710175       0.28739546 </v>
   <v>       0.69760415      -1.11069457       0.28686986 </v>
   <v>      -0.11389515      -0.11401035      -0.15081837 </v>
   <v>      -0.00031242      -0.21236405       0.00031409 </v>
   <v>      -0.40536735       0.00099737       1.28080729 </v>
   <v>      -0.38273690      -0.00741756      -1.33030949 </v>
   <v>       0.40295237       0.00086839       1.28118222 </v>
   <v>       0.38053420      -0.00647979      -1.33155223 </v>
   <v>       0.81421487       0.81346369      -0.02431565 </v>
   <v>      -0.82456050      -0.82518593      -0.00422425 </v>
   <v>      -0.81935709       0.81595274      -0.01782675 </v>
   <v>       0.81829347      -0.82161379      -0.01399089 </v>
   <v>       0.00360443       0.00490785       1.18633379 </v>
   <v>       0.31451470       0.44797470       0.86729944 </v>
   <v>       1.10613594       0.70182568      -0.28711106 </v>
   <v>      -0.70191210      -1.09858642      -0.29714356 </v>
   <v>       0.10804245      -0.13206438       0.13922553 </v>
   <v>      -0.11399074       0.11305455      -0.15225211 </v>
   <v>      -0.07358560      -0.07912343       0.17954828 </v>
   <v>      -1.10440457       0.70388200      -0.28934343 </v>
   <v>       0.70385167      -1.10251448      -0.29127822 </v>
   <v>       0.11374187       0.11325442      -0.15300570 </v>
   <v>      -0.21287653      -0.00073459      -0.00017966 </v>
   <v>       0.21406040      -0.00018312      -0.00130951 </v>
   <v>       0.00096042      -0.40584996       1.28060166 </v>
   <v>      -0.00370476      -0.39153354      -1.32324112 </v>
   <v>      -0.00038690      -0.00083138       0.01214527 </v>
   <v>      -0.14342981       0.12111383       0.12922338 </v>
   <v>       0.15138308       0.14766851       0.11419992 </v>
   <v>       0.00021379       0.21423601      -0.00155938 </v>
   <v>      -0.63664248      -0.88565506      -5.65829425 </v>
   <v>       0.27630560       0.39395852       3.88153787 </v>
  </varray>
  <varray name="stress" >
   <v>      -6.71838730      -0.01131623      -0.02890748 </v>
   <v>      -0.01131619      -6.72666933      -0.03975422 </v>
   <v>      -0.02890747      -0.03975422      -6.69746505 </v>
  </varray>
  <energy>
   <i name="e_fr_energy">   -174.99788007 </i>
   <i name="e_wo_entrp">   -174.98503647 </i>
   <i name="e_0_energy">     -0.05137440 </i>
  </energy>
  <time name="totalsc">18069.4618069.92</time>
  <eigenvalues>
   <array>
    <dimension dim="1">band</dimension>
    <dimension dim="2">kpoint</dimension>
    <dimension dim="3">spin</dimension>
    <field>eigene</field>
    <field>occ</field>
    <set>
     <set comment="spin 1">
      <set comment="kpoint 1">
       <r>  -28.7264    1.0000 </r>
       <r>  -13.4415    1.0000 </r>
       <r>  -11.1225    1.0000 </r>
       <r>  -11.1023    1.0000 </r>
       <r>  -10.4362    1.0000 </r>
       <r>   -6.6417    1.0000 </r>
       <r>   -6.1293    1.0000 </r>
       <r>   -6.1275    1.0000 </r>
       <r>   -6.1254    1.0000 </r>
       <r>   -5.9149    1.0000 </r>
       <r>   -5.9031    1.0000 </r>
       <r>   -5.8035    1.0000 </r>
       <r>   -5.7962    1.0000 </r>
       <r>   -5.7807    1.0000 </r>
       <r>   -5.7374    1.0000 </r>
       <r>   -5.6850    1.0000 </r>
       <r>   -5.6764    1.0000 </r>
       <r>   -5.6761    1.0000 </r>
       <r>   -5.6752    1.0000 </r>
       <r>   -5.6244    1.0000 </r>
       <r>   -5.6091    1.0000 </r>
       <r>   -5.6061    1.0000 </r>
       <r>   -5.5893    1.0000 </r>
       <r>   -5.5864    1.0000 </r>
       <r>   -5.5856    1.0000 </r>
       <r>   -5.5753    1.0000 </r>
       <r>   -5.5707    1.0000 </r>
       <r>   -5.5337    1.0000 </r>
       <r>   -5.5225    1.0000 </r>
       <r>   -5.5213    1.0000 </r>
       <r>   -5.5130    1.0000 </r>
       <r>   -5.5096    1.0000 </r>
       <r>   -5.5086    1.0000 </r>
       <r>   -5.5078    1.0000 </r>
       <r>   -5.5024    1.0000 </r>
       <r>   -5.4983    1.0000 </r>
       <r>   -5.4913    1.0000 </r>
       <r>   -5.4805    1.0000 </r>
       <r>   -5.4685    1.0000 </r>
       <r>   -5.4631    1.0000 </r>
       <r>   -5.4604    1.0000 </r>
       <r>   -5.4580    1.0000 </r>
       <r>   -5.4577    1.0000 </r>
       <r>   -5.4576    1.0000 </r>
       <r>   -5.4574    1.0000 </r>
       <r>   -5.4482    1.0000 </r>
       <r>   -5.4418    1.0000 </r>
       <r>   -5.4346    1.0000 </r>
       <r>   -5.4196    1.0000 </r>
       <r>   -5.4189    1.0000 </r>
       <r>   -5.4173    1.0000 </r>
       <r>   -5.4038    1.0000 </r>
       <r>   -5.3986    1.0000 </r>
       <r>   -5.3984    1.0000 </r>
       <r>   -5.3850    1.0000 </r>
       <r>   -5.3723    1.0000 </r>
       <r>   -5.3681    1.0000 </r>
       <r>   -5.3395    1.0000 </r>
       <r>   -5.3322    1.0000 </r>
       <r>   -5.3091    1.0000 </r>
       <r>   -5.3070    1.0000 </r>
       <r>   -5.3062    1.0000 </r>
       <r>   -5.3060    1.0000 </r>
       <r>   -5.3038    1.0000 </r>
       <r>   -5.2990    1.0000 </r>
       <r>   -5.2912    1.0000 </r>
       <r>   -5.2895    1.0000 </r>
       <r>   -5.2743    1.0000 </r>
       <r>   -5.2652    1.0000 </r>
       <r>   -5.2456    1.0000 </r>
       <r>   -5.2266    1.0000 </r>
       <r>   -5.1789    1.0000 </r>
       <r>   -5.1745    1.0000 </r>
       <r>   -5.1712    1.0000 </r>
       <r>   -5.1701    1.0000 </r>
       <r>   -5.1681    1.0000 </r>
       <r>   -5.1666    1.0000 </r>
       <r>   -5.1659    1.0000 </r>
       <r>   -5.1628    1.0000 </r>
       <r>   -5.1395    1.0000 </r>
       <r>   -5.1376    1.0000 </r>
       <r>   -5.1344    1.0000 </r>
       <r>   -5.1197    1.0000 </r>
       <r>   -5.1135    1.0000 </r>
       <r>   -5.1120    1.0000 </r>
       <r>   -5.1068    1.0000 </r>
       <r>   -5.0969    1.0000 </r>
       <r>   -5.0902    1.0000 </r>
       <r>   -5.0871    1.0000 </r>
       <r>   -5.0795    1.0000 </r>
       <r>   -5.0623    1.0000 </r>
       <r>   -5.0484    1.0000 </r>
       <r>   -5.0468    1.0000 </r>
       <r>   -5.0426    1.0000 </r>
       <r>   -5.0423    1.0000 </r>
       <r>   -5.0377    1.0000 </r>
       <r>   -5.0375    1.0000 </r>
       <r>   -5.0171    1.0000 </r>
       <r>   -5.0167    1.0000 </r>
       <r>   -5.0089    1.0000 </r>
       <r>   -5.0054    1.0000 </r>
       <r>   -5.0011    1.0000 </r>
       <r>   -4.9958    1.0000 </r>
       <r>   -4.9944    1.0000 </r>
       <r>   -4.9940    1.0000 </r>
       <r>   -4.9909    1.0000 </r>
       <r>   -4.9822    1.0000 </r>
       <r>   -4.9798    1.0000 </r>
       <r>   -4.9745    1.0000 </r>
       <r>   -4.9696    1.0000 </r>
       <r>   -4.9696    1.0000 </r>
       <r>   -4.9684    1.0000 </r>
       <r>   -4.9574    1.0000 </r>
       <r>   -4.9562    1.0000 </r>
       <r>   -4.9499    1.0000 </r>
       <r>   -4.9494    1.0000 </r>
       <r>   -4.9374    1.0000 </r>
       <r>   -4.9368    1.0000 </r>
       <r>   -4.9224    1.0000 </r>
       <r>   -4.9093    1.0000 </r>
       <r>   -4.9072    1.0000 </r>
       <r>   -4.9069    1.0000 </r>
       <r>   -4.9059    1.0000 </r>
       <r>   -4.9022    1.0000 </r>
       <r>   -4.8916    1.0000 </r>
       <r>   -4.8914    1.0000 </r>
       <r>   -4.8728    1.0000 </r>
       <r>   -4.8676    1.0000 </r>
       <r>   -4.8635    1.0000 </r>
       <r>   -4.8557    1.0000 </r>
       <r>   -4.8327    1.0000 </r>
       <r>   -4.8291    1.0000 </r>
       <r>   -4.8225    1.0000 </r>
       <r>   -4.8218    1.0000 </r>
       <r>   -4.8201    1.0000 </r>
       <r>   -4.8157    1.0000 </r>
       <r>   -4.8081    1.0000 </r>
       <r>   -4.7877    0.9999 </r>
       <r>   -4.7836    0.9999 </r>
       <r>   -4.7787    0.9999 </r>
       <r>   -4.7720    0.9999 </r>
       <r>   -4.7531    0.9998 </r>
       <r>   -4.7511    0.9998 </r>
       <r>   -4.7370    0.9997 </r>
       <r>   -4.7277    0.9996 </r>
       <r>   -4.7273    0.9996 </r>
       <r>   -4.7250    0.9996 </r>
       <r>   -4.7200    0.9996 </r>
       <r>   -4.7106    0.9995 </r>
       <r>   -4.6982    0.9993 </r>
       <r>   -4.6909    0.9992 </r>
       <r>   -4.6886    0.9992 </r>
       <r>   -4.6718    0.9988 </r>
       <r>   -4.6680    0.9988 </r>
       <r>   -4.6672    0.9987 </r>
       <r>   -4.6646    0.9987 </r>
       <r>   -4.6622    0.9986 </r>
       <r>   -4.6620    0.9986 </r>
       <r>   -4.6555    0.9985 </r>
       <r>   -4.6494    0.9983 </r>
       <r>   -4.6451    0.9982 </r>
       <r>   -4.6414    0.9981 </r>
       <r>   -4.6413    0.9981 </r>
       <r>   -4.6391    0.9980 </r>
       <r>   -4.6386    0.9980 </r>
       <r>   -4.6343    0.9978 </r>
       <r>   -4.6342    0.9978 </r>
       <r>   -4.6280    0.9976 </r>
       <r>   -4.6206    0.9974 </r>
       <r>   -4.6189    0.9973 </r>
       <r>   -4.6169    0.9972 </r>
       <r>   -4.6132    0.9971 </r>
       <r>   -4.6121    0.9971 </r>
       <r>   -4.5863    0.9961 </r>
       <r>   -4.5861    0.9961 </r>
       <r>   -4.5822    0.9960 </r>
       <r>   -4.5821    0.9960 </r>
       <r>   -4.5763    0.9958 </r>
       <r>   -4.5758    0.9957 </r>
       <r>   -4.5732    0.9957 </r>
       <r>   -4.5629    0.9954 </r>
       <r>   -4.5541    0.9952 </r>
       <r>   -4.5433    0.9951 </r>
       <r>   -4.5430    0.9951 </r>
       <r>   -4.5409    0.9951 </r>
       <r>   -4.5403    0.9951 </r>
       <r>   -4.5399    0.9951 </r>
       <r>   -4.5398    0.9951 </r>
       <r>   -4.5365    0.9951 </r>
       <r>   -4.5360    0.9951 </r>
       <r>   -4.5036    0.9965 </r>
       <r>   -4.4990    0.9969 </r>
       <r>   -4.4985    0.9970 </r>
       <r>   -4.4945    0.9974 </r>
       <r>   -4.4921    0.9977 </r>
       <r>   -4.4798    0.9995 </r>
       <r>   -4.4709    1.0012 </r>
       <r>   -4.4703    1.0013 </r>
       <r>   -4.4644    1.0027 </r>
       <r>   -4.4585    1.0042 </r>
       <r>   -4.4567    1.0047 </r>
       <r>   -4.4535    1.0056 </r>
       <r>   -4.4480    1.0072 </r>
       <r>   -4.4474    1.0074 </r>
       <r>   -4.4435    1.0087 </r>
       <r>   -4.4394    1.0101 </r>
       <r>   -4.4389    1.0102 </r>
       <r>   -4.4348    1.0117 </r>
       <r>   -4.4342    1.0120 </r>
       <r>   -4.4281    1.0143 </r>
       <r>   -4.4179    1.0186 </r>
       <r>   -4.4069    1.0236 </r>
       <r>   -4.3978    1.0279 </r>
       <r>   -4.3972    1.0281 </r>
       <r>   -4.3959    1.0288 </r>
       <r>   -4.3909    1.0312 </r>
       <r>   -4.3899    1.0317 </r>
       <r>   -4.3896    1.0318 </r>
       <r>   -4.3867    1.0332 </r>
       <r>   -4.3786    1.0370 </r>
       <r>   -4.3777    1.0374 </r>
       <r>   -4.3536    1.0472 </r>
       <r>   -4.3513    1.0479 </r>
       <r>   -4.3408    1.0505 </r>
       <r>   -4.3393    1.0507 </r>
       <r>   -4.3290    1.0516 </r>
       <r>   -4.3265    1.0516 </r>
       <r>   -4.3255    1.0515 </r>
       <r>   -4.3253    1.0515 </r>
       <r>   -4.3215    1.0512 </r>
       <r>   -4.3181    1.0506 </r>
       <r>   -4.3180    1.0506 </r>
       <r>   -4.3131    1.0493 </r>
       <r>   -4.3125    1.0491 </r>
       <r>   -4.3119    1.0489 </r>
       <r>   -4.3105    1.0485 </r>
       <r>   -4.3095    1.0481 </r>
       <r>   -4.3066    1.0468 </r>
       <r>   -4.3047    1.0459 </r>
       <r>   -4.3042    1.0456 </r>
       <r>   -4.2960    1.0405 </r>
       <r>   -4.2886    1.0342 </r>
       <r>   -4.2859    1.0315 </r>
       <r>   -4.2848    1.0303 </r>
       <r>   -4.2782    1.0226 </r>
       <r>   -4.2733    1.0158 </r>
       <r>   -4.2718    1.0136 </r>
       <r>   -4.2714    1.0129 </r>
       <r>   -4.2707    1.0119 </r>
       <r>   -4.2694    1.0099 </r>
       <r>   -4.2549    0.9828 </r>
       <r>   -4.2466    0.9640 </r>
       <r>   -4.2462    0.9631 </r>
       <r>   -4.2446    0.9589 </r>
       <r>   -4.2392    0.9448 </r>
       <r>   -4.2381    0.9417 </r>
       <r>   -4.2380    0.9416 </r>
       <r>   -4.2370    0.9386 </r>
       <r>   -4.2318    0.9235 </r>
       <r>   -4.2317    0.9234 </r>
       <r>   -4.2261    0.9057 </r>
       <r>   -4.2247    0.9010 </r>
       <r>   -4.2245    0.9005 </r>
       <r>   -4.2241    0.8992 </r>
       <r>   -4.2214    0.8900 </r>
       <r>   -4.2094    0.8464 </r>
       <r>   -4.2073    0.8384 </r>
       <r>   -4.2069    0.8366 </r>
       <r>   -4.2063    0.8344 </r>
       <r>   -4.2032    0.8221 </r>
       <r>   -4.2021    0.8173 </r>
       <r>   -4.1903    0.7670 </r>
       <r>   -4.1832    0.7342 </r>
       <r>   -4.1816    0.7268 </r>
       <r>   -4.1787    0.7133 </r>
       <r>   -4.1720    0.6809 </r>
       <r>   -4.1719    0.6801 </r>
       <r>   -4.1665    0.6533 </r>
       <r>   -4.1574    0.6067 </r>
       <r>   -4.1567    0.6032 </r>
       <r>   -4.1564    0.6019 </r>
       <r>   -4.1429    0.5310 </r>
       <r>   -4.1287    0.4562 </r>
       <r>   -4.1194    0.4072 </r>
       <r>   -4.1190    0.4052 </r>
       <r>   -4.1137    0.3782 </r>
       <r>   -4.1067    0.3425 </r>
       <r>   -4.0986    0.3026 </r>
       <r>   -4.0428    0.0783 </r>
       <r>   -3.9524   -0.0512 </r>
       <r>   -3.8912   -0.0350 </r>
       <r>   -3.8121   -0.0033 </r>
       <r>   -3.8093   -0.0026 </r>
       <r>   -3.8051   -0.0016 </r>
       <r>   -3.4830    0.0001 </r>
       <r>   -3.4824    0.0001 </r>
       <r>   -3.3882    0.0000 </r>
       <r>   -3.0516    0.0000 </r>
       <r>   -3.0504    0.0000 </r>
       <r>   -3.0094    0.0000 </r>
       <r>   -3.0062    0.0000 </r>
       <r>   -3.0020    0.0000 </r>
       <r>   -3.0013    0.0000 </r>
       <r>   -2.9201    0.0000 </r>
       <r>   -2.8159    0.0000 </r>
       <r>   -2.5538    0.0000 </r>
       <r>   -2.5451    0.0000 </r>
       <r>   -2.5085    0.0000 </r>
       <r>   -2.2258    0.0000 </r>
       <r>   -2.1272    0.0000 </r>
       <r>   -2.1206    0.0000 </r>
       <r>   -2.1069    0.0000 </r>
       <r>   -1.9438    0.0000 </r>
       <r>   -1.9395    0.0000 </r>
       <r>   -1.8575    0.0000 </r>
       <r>   -1.8499    0.0000 </r>
       <r>   -1.8381    0.0000 </r>
       <r>   -1.7296    0.0000 </r>
       <r>   -1.7206    0.0000 </r>
       <r>   -1.6917    0.0000 </r>
       <r>   -1.6304    0.0000 </r>
       <r>   -1.5416    0.0000 </r>
       <r>   -1.4948    0.0000 </r>
       <r>   -1.3739    0.0000 </r>
       <r>   -1.3463    0.0000 </r>
       <r>   -1.0659    0.0000 </r>
       <r>   -1.0430    0.0000 </r>
       <r>   -1.0174    0.0000 </r>
       <r>   -0.9621    0.0000 </r>
       <r>   -0.9467    0.0000 </r>
       <r>   -0.9311    0.0000 </r>
       <r>   -0.9241    0.0000 </r>
       <r>   -0.9200    0.0000 </r>
       <r>   -0.8885    0.0000 </r>
       <r>   -0.8268    0.0000 </r>
       <r>   -0.6628    0.0000 </r>
      </set>
     </set>
    </set>
   </array>
  </eigenvalues>
  <separator name="orbital magnetization" >
   <v name="MAGDIPOLOUT">      0.00000000      0.00000000      0.00000000</v>
  </separator>
  <dos>
   <i name="efermi">     -4.13701391 </i>
   <total>
    <array>
     <dimension dim="1">gridpoints</dimension>
     <dimension dim="2">spin</dimension>
     <field>energy</field>
     <field>total</field>
     <field>integrated</field>
     <set>
      <set comment="spin 1">
       <r>   -30.7264     0.0000     0.0000 </r>
       <r>   -30.6195     0.0000     0.0000 </r>
       <r>   -30.5127     0.0000     0.0000 </r>
       <r>   -30.4058     0.0000     0.0000 </r>
       <r>   -30.2989     0.0000     0.0000 </r>
       <r>   -30.1920     0.0000     0.0000 </r>
       <r>   -30.0851     0.0000     0.0000 </r>
       <r>   -29.9783     0.0000     0.0000 </r>
       <r>   -29.8714     0.0000     0.0000 </r>
       <r>   -29.7645     0.0000     0.0000 </r>
       <r>   -29.6576     0.0000     0.0000 </r>
       <r>   -29.5507     0.0000     0.0000 </r>
       <r>   -29.4439     0.0002     0.0000 </r>
       <r>   -29.3370     0.0041     0.0005 </r>
       <r>   -29.2301     0.0323     0.0039 </r>
       <r>   -29.1232     0.0549     0.0098 </r>
       <r>   -29.0164    -0.3682    -0.0296 </r>
       <r>   -28.9095    -0.6768    -0.1019 </r>
       <r>   -28.8026     3.5571     0.2783 </r>
       <r>   -28.6957     9.7358     1.3188 </r>
       <r>   -28.5888     6.7033     2.0353 </r>
       <r>   -28.4820     0.3379     2.0714 </r>
       <r>   -28.3751    -0.7016     1.9964 </r>
       <r>   -28.2682    -0.0330     1.9929 </r>
       <r>   -28.1613     0.0547     1.9987 </r>
       <r>   -28.0544     0.0111     1.9999 </r>
       <r>   -27.9476     0.0009     2.0000 </r>
       <r>   -27.8407     0.0000     2.0000 </r>
       <r>   -27.7338     0.0000     2.0000 </r>
       <r>   -27.6269     0.0000     2.0000 </r>
       <r>   -27.5201     0.0000     2.0000 </r>
       <r>   -27.4132     0.0000     2.0000 </r>
       <r>   -27.3063     0.0000     2.0000 </r>
       <r>   -27.1994     0.0000     2.0000 </r>
       <r>   -27.0925     0.0000     2.0000 </r>
       <r>   -26.9857     0.0000     2.0000 </r>
       <r>   -26.8788     0.0000     2.0000 </r>
       <r>   -26.7719     0.0000     2.0000 </r>
       <r>   -26.6650     0.0000     2.0000 </r>
       <r>   -26.5581     0.0000     2.0000 </r>
       <r>   -26.4513     0.0000     2.0000 </r>
       <r>   -26.3444     0.0000     2.0000 </r>
       <r>   -26.2375     0.0000     2.0000 </r>
       <r>   -26.1306     0.0000     2.0000 </r>
       <r>   -26.0237     0.0000     2.0000 </r>
       <r>   -25.9169     0.0000     2.0000 </r>
       <r>   -25.8100     0.0000     2.0000 </r>
       <r>   -25.7031     0.0000     2.0000 </r>
       <r>   -25.5962     0.0000     2.0000 </r>
       <r>   -25.4894     0.0000     2.0000 </r>
       <r>   -25.3825     0.0000     2.0000 </r>
       <r>   -25.2756     0.0000     2.0000 </r>
       <r>   -25.1687     0.0000     2.0000 </r>
       <r>   -25.0618     0.0000     2.0000 </r>
       <r>   -24.9550     0.0000     2.0000 </r>
       <r>   -24.8481     0.0000     2.0000 </r>
       <r>   -24.7412     0.0000     2.0000 </r>
       <r>   -24.6343     0.0000     2.0000 </r>
       <r>   -24.5274     0.0000     2.0000 </r>
       <r>   -24.4206     0.0000     2.0000 </r>
       <r>   -24.3137     0.0000     2.0000 </r>
       <r>   -24.2068     0.0000     2.0000 </r>
       <r>   -24.0999     0.0000     2.0000 </r>
       <r>   -23.9931     0.0000     2.0000 </r>
       <r>   -23.8862     0.0000     2.0000 </r>
       <r>   -23.7793     0.0000     2.0000 </r>
       <r>   -23.6724     0.0000     2.0000 </r>
       <r>   -23.5655     0.0000     2.0000 </r>
       <r>   -23.4587     0.0000     2.0000 </r>
       <r>   -23.3518     0.0000     2.0000 </r>
       <r>   -23.2449     0.0000     2.0000 </r>
       <r>   -23.1380     0.0000     2.0000 </r>
       <r>   -23.0311     0.0000     2.0000 </r>
       <r>   -22.9243     0.0000     2.0000 </r>
       <r>   -22.8174     0.0000     2.0000 </r>
       <r>   -22.7105     0.0000     2.0000 </r>
       <r>   -22.6036     0.0000     2.0000 </r>
       <r>   -22.4968     0.0000     2.0000 </r>
       <r>   -22.3899     0.0000     2.0000 </r>
       <r>   -22.2830     0.0000     2.0000 </r>
       <r>   -22.1761     0.0000     2.0000 </r>
       <r>   -22.0692     0.0000     2.0000 </r>
       <r>   -21.9624     0.0000     2.0000 </r>
       <r>   -21.8555     0.0000     2.0000 </r>
       <r>   -21.7486     0.0000     2.0000 </r>
       <r>   -21.6417     0.0000     2.0000 </r>
       <r>   -21.5348     0.0000     2.0000 </r>
       <r>   -21.4280     0.0000     2.0000 </r>
       <r>   -21.3211     0.0000     2.0000 </r>
       <r>   -21.2142     0.0000     2.0000 </r>
       <r>   -21.1073     0.0000     2.0000 </r>
       <r>   -21.0005     0.0000     2.0000 </r>
       <r>   -20.8936     0.0000     2.0000 </r>
       <r>   -20.7867     0.0000     2.0000 </r>
       <r>   -20.6798     0.0000     2.0000 </r>
       <r>   -20.5729     0.0000     2.0000 </r>
       <r>   -20.4661     0.0000     2.0000 </r>
       <r>   -20.3592     0.0000     2.0000 </r>
       <r>   -20.2523     0.0000     2.0000 </r>
       <r>   -20.1454     0.0000     2.0000 </r>
       <r>   -20.0385     0.0000     2.0000 </r>
       <r>   -19.9317     0.0000     2.0000 </r>
       <r>   -19.8248     0.0000     2.0000 </r>
       <r>   -19.7179     0.0000     2.0000 </r>
       <r>   -19.6110     0.0000     2.0000 </r>
       <r>   -19.5041     0.0000     2.0000 </r>
       <r>   -19.3973     0.0000     2.0000 </r>
       <r>   -19.2904     0.0000     2.0000 </r>
       <r>   -19.1835     0.0000     2.0000 </r>
       <r>   -19.0766     0.0000     2.0000 </r>
       <r>   -18.9698     0.0000     2.0000 </r>
       <r>   -18.8629     0.0000     2.0000 </r>
       <r>   -18.7560     0.0000     2.0000 </r>
       <r>   -18.6491     0.0000     2.0000 </r>
       <r>   -18.5422     0.0000     2.0000 </r>
       <r>   -18.4354     0.0000     2.0000 </r>
       <r>   -18.3285     0.0000     2.0000 </r>
       <r>   -18.2216     0.0000     2.0000 </r>
       <r>   -18.1147     0.0000     2.0000 </r>
       <r>   -18.0078     0.0000     2.0000 </r>
       <r>   -17.9010     0.0000     2.0000 </r>
       <r>   -17.7941     0.0000     2.0000 </r>
       <r>   -17.6872     0.0000     2.0000 </r>
       <r>   -17.5803     0.0000     2.0000 </r>
       <r>   -17.4735     0.0000     2.0000 </r>
       <r>   -17.3666     0.0000     2.0000 </r>
       <r>   -17.2597     0.0000     2.0000 </r>
       <r>   -17.1528     0.0000     2.0000 </r>
       <r>   -17.0459     0.0000     2.0000 </r>
       <r>   -16.9391     0.0000     2.0000 </r>
       <r>   -16.8322     0.0000     2.0000 </r>
       <r>   -16.7253     0.0000     2.0000 </r>
       <r>   -16.6184     0.0000     2.0000 </r>
       <r>   -16.5115     0.0000     2.0000 </r>
       <r>   -16.4047     0.0000     2.0000 </r>
       <r>   -16.2978     0.0000     2.0000 </r>
       <r>   -16.1909     0.0000     2.0000 </r>
       <r>   -16.0840     0.0000     2.0000 </r>
       <r>   -15.9772     0.0000     2.0000 </r>
       <r>   -15.8703     0.0000     2.0000 </r>
       <r>   -15.7634     0.0000     2.0000 </r>
       <r>   -15.6565     0.0000     2.0000 </r>
       <r>   -15.5496     0.0000     2.0000 </r>
       <r>   -15.4428     0.0000     2.0000 </r>
       <r>   -15.3359     0.0000     2.0000 </r>
       <r>   -15.2290     0.0000     2.0000 </r>
       <r>   -15.1221     0.0000     2.0000 </r>
       <r>   -15.0152     0.0000     2.0000 </r>
       <r>   -14.9084     0.0000     2.0000 </r>
       <r>   -14.8015     0.0000     2.0000 </r>
       <r>   -14.6946     0.0000     2.0000 </r>
       <r>   -14.5877     0.0000     2.0000 </r>
       <r>   -14.4809     0.0000     2.0000 </r>
       <r>   -14.3740     0.0000     2.0000 </r>
       <r>   -14.2671     0.0000     2.0000 </r>
       <r>   -14.1602     0.0002     2.0000 </r>
       <r>   -14.0533     0.0040     2.0005 </r>
       <r>   -13.9465     0.0318     2.0038 </r>
       <r>   -13.8396     0.0558     2.0098 </r>
       <r>   -13.7327    -0.3590     1.9714 </r>
       <r>   -13.6258    -0.6897     1.8977 </r>
       <r>   -13.5189     3.4733     2.2689 </r>
       <r>   -13.4121     9.7045     3.3062 </r>
       <r>   -13.3052     6.7880     4.0316 </r>
       <r>   -13.1983     0.3829     4.0726 </r>
       <r>   -13.0914    -0.7094     3.9968 </r>
       <r>   -12.9845    -0.0373     3.9928 </r>
       <r>   -12.8777     0.0553     3.9987 </r>
       <r>   -12.7708     0.0114     3.9999 </r>
       <r>   -12.6639     0.0009     4.0000 </r>
       <r>   -12.5570     0.0000     4.0000 </r>
       <r>   -12.4502     0.0000     4.0000 </r>
       <r>   -12.3433     0.0000     4.0000 </r>
       <r>   -12.2364     0.0000     4.0000 </r>
       <r>   -12.1295     0.0000     4.0000 </r>
       <r>   -12.0226     0.0000     4.0000 </r>
       <r>   -11.9158     0.0000     4.0000 </r>
       <r>   -11.8089     0.0009     4.0001 </r>
       <r>   -11.7020     0.0136     4.0015 </r>
       <r>   -11.5951     0.0853     4.0107 </r>
       <r>   -11.4882     0.0514     4.0162 </r>
       <r>   -11.3814    -1.0527     3.9036 </r>
       <r>   -11.2745    -0.6426     3.8350 </r>
       <r>   -11.1676    10.0066     4.9045 </r>
       <r>   -11.0607    19.9154     7.0330 </r>
       <r>   -10.9539    10.5256     8.1579 </r>
       <r>   -10.8470    -0.4231     8.1127 </r>
       <r>   -10.7401    -1.3758     7.9657 </r>
       <r>   -10.6332    -0.7452     7.8860 </r>
       <r>   -10.5263     2.7509     8.1801 </r>
       <r>   -10.4195     9.3179     9.1759 </r>
       <r>   -10.3126     7.6067     9.9889 </r>
       <r>   -10.2057     0.8889    10.0839 </r>
       <r>   -10.0988    -0.7756    10.0010 </r>
       <r>    -9.9919    -0.0860     9.9919 </r>
       <r>    -9.8851     0.0603     9.9983 </r>
       <r>    -9.7782     0.0146     9.9999 </r>
       <r>    -9.6713     0.0012    10.0000 </r>
       <r>    -9.5644     0.0000    10.0000 </r>
       <r>    -9.4576     0.0000    10.0000 </r>
       <r>    -9.3507     0.0000    10.0000 </r>
       <r>    -9.2438     0.0000    10.0000 </r>
       <r>    -9.1369     0.0000    10.0000 </r>
       <r>    -9.0300     0.0000    10.0000 </r>
       <r>    -8.9232     0.0000    10.0000 </r>
       <r>    -8.8163     0.0000    10.0000 </r>
       <r>    -8.7094     0.0000    10.0000 </r>
       <r>    -8.6025     0.0000    10.0000 </r>
       <r>    -8.4956     0.0000    10.0000 </r>
       <r>    -8.3888     0.0000    10.0000 </r>
       <r>    -8.2819     0.0000    10.0000 </r>
       <r>    -8.1750     0.0000    10.0000 </r>
       <r>    -8.0681     0.0000    10.0000 </r>
       <r>    -7.9613     0.0000    10.0000 </r>
       <r>    -7.8544     0.0000    10.0000 </r>
       <r>    -7.7475     0.0000    10.0000 </r>
       <r>    -7.6406     0.0000    10.0000 </r>
       <r>    -7.5337     0.0000    10.0000 </r>
       <r>    -7.4269     0.0000    10.0000 </r>
       <r>    -7.3200     0.0007    10.0001 </r>
       <r>    -7.2131     0.0098    10.0011 </r>
       <r>    -7.1062     0.0518    10.0067 </r>
       <r>    -6.9993    -0.0136    10.0052 </r>
       <r>    -6.8925    -0.6604     9.9346 </r>
       <r>    -6.7856     0.1318     9.9487 </r>
       <r>    -6.6787     6.3192    10.6241 </r>
       <r>    -6.5718    10.0504    11.6983 </r>
       <r>    -6.4649     3.7542    12.0995 </r>
       <r>    -6.3581    -2.7681    11.8037 </r>
       <r>    -6.2512     2.3415    12.0539 </r>
       <r>    -6.1443    21.6401    14.3668 </r>
       <r>    -6.0374    27.7265    17.3302 </r>
       <r>    -5.9306    20.9949    19.5741 </r>
       <r>    -5.8237    32.7460    23.0739 </r>
       <r>    -5.7168    60.9317    29.5862 </r>
       <r>    -5.6099   128.2282    43.2911 </r>
       <r>    -5.5030   246.5374    69.6407 </r>
       <r>    -5.3962   304.4588   102.1808 </r>
       <r>    -5.2893   243.5735   128.2136 </r>
       <r>    -5.1824   203.8362   149.9994 </r>
       <r>    -5.0755   276.6377   179.5661 </r>
       <r>    -4.9686   363.4036   218.4062 </r>
       <r>    -4.8618   338.7156   254.6076 </r>
       <r>    -4.7549   288.4335   285.4350 </r>
       <r>    -4.6480   350.5773   322.9043 </r>
       <r>    -4.5411   415.2839   367.2893 </r>
       <r>    -4.4343   417.6005   411.9219 </r>
       <r>    -4.3274   488.4090   464.1224 </r>
       <r>    -4.2205   559.4102   523.9114 </r>
       <r>    -4.1136   400.4429   566.7102 </r>
       <r>    -4.0067   126.6028   580.2414 </r>
       <r>    -3.8999    15.8155   581.9317 </r>
       <r>    -3.7930    30.2948   585.1696 </r>
       <r>    -3.6861    23.7307   587.7059 </r>
       <r>    -3.5792     6.6570   588.4174 </r>
       <r>    -3.4723    19.2365   590.4734 </r>
       <r>    -3.3655    24.9960   593.1449 </r>
       <r>    -3.2586     5.5908   593.7424 </r>
       <r>    -3.1517     2.4606   594.0054 </r>
       <r>    -3.0448    41.1345   598.4018 </r>
       <r>    -2.9380    64.8087   605.3285 </r>
       <r>    -2.8311    35.6669   609.1405 </r>
       <r>    -2.7242     6.2507   609.8086 </r>
       <r>    -2.6173     9.7627   610.8520 </r>
       <r>    -2.5104    27.2416   613.7636 </r>
       <r>    -2.4036    19.2297   615.8188 </r>
       <r>    -2.2967     4.3127   616.2797 </r>
       <r>    -2.1898    17.9753   618.2009 </r>
       <r>    -2.0829    33.8135   621.8149 </r>
       <r>    -1.9760    32.9336   625.3348 </r>
       <r>    -1.8692    40.5232   629.6658 </r>
       <r>    -1.7623    49.6020   634.9672 </r>
       <r>    -1.6554    44.5043   639.7238 </r>
       <r>    -1.5485    33.0612   643.2573 </r>
       <r>    -1.4417    27.1013   646.1539 </r>
       <r>    -1.3348    23.5258   648.6683 </r>
       <r>    -1.2279     9.0806   649.6388 </r>
       <r>    -1.1210     6.7251   650.3576 </r>
       <r>    -1.0141    44.7433   655.1397 </r>
       <r>    -0.9073    78.3877   663.5177 </r>
       <r>    -0.8004    54.8553   669.3805 </r>
       <r>    -0.6935    16.6764   671.1629 </r>
       <r>    -0.5866     5.8093   671.7838 </r>
       <r>    -0.4797     2.4846   672.0493 </r>
       <r>    -0.3729    -0.3522   672.0117 </r>
       <r>    -0.2660    -0.2224   671.9879 </r>
       <r>    -0.1591     0.0749   671.9959 </r>
       <r>    -0.0522     0.0336   671.9995 </r>
       <r>     0.0547     0.0042   672.0000 </r>
       <r>     0.1615     0.0002   672.0000 </r>
       <r>     0.2684     0.0000   672.0000 </r>
       <r>     0.3753     0.0000   672.0000 </r>
       <r>     0.4822     0.0000   672.0000 </r>
       <r>     0.5890     0.0000   672.0000 </r>
       <r>     0.6959     0.0000   672.0000 </r>
       <r>     0.8028     0.0000   672.0000 </r>
       <r>     0.9097     0.0000   672.0000 </r>
       <r>     1.0166     0.0000   672.0000 </r>
       <r>     1.1234     0.0000   672.0000 </r>
       <r>     1.2303     0.0000   672.0000 </r>
       <r>     1.3372     0.0000   672.0000 </r>
      </set>
     </set>
    </array>
   </total>
  </dos>
 </calculation>
 <structure name="finalpos" >
  <crystal>
   <varray name="basis" >
    <v>      30.00000000       0.00000000       0.00000000 </v>
    <v>       0.00000000      30.00000000       0.00000000 </v>
    <v>       0.00000000       0.00000000      30.00000000 </v>
   </varray>
   <i name="volume">  27000.00000000 </i>
   <varray name="rec_basis" >
    <v>       0.03333333       0.00000000       0.00000000 </v>
    <v>       0.00000000       0.03333333       0.00000000 </v>
    <v>       0.00000000       0.00000000       0.03333333 </v>
   </varray>
  </crystal>
  <varray name="positions" >
   <v>       0.44576020       0.32826710       0.41691983 </v>
   <v>       0.67173288       0.55423978       0.41691983 </v>
   <v>       0.55423980       0.32826710       0.41691983 </v>
   <v>       0.32826712       0.55423978       0.41691983 </v>
   <v>       0.50000000       0.38250690       0.34021317 </v>
   <v>       0.50000000       0.38250690       0.65978680 </v>
   <v>       0.50000000       0.27609440       0.50000000 </v>
   <v>       0.27609443       0.49999998       0.50000000 </v>
   <v>       0.72390557       0.49999998       0.50000000 </v>
   <v>       0.50000000       0.72390555       0.50000000 </v>
   <v>       0.61195280       0.38804720       0.34167483 </v>
   <v>       0.61195280       0.38804720       0.65832513 </v>
   <v>       0.38804722       0.61195278       0.34167483 </v>
   <v>       0.38804722       0.61195278       0.65832513 </v>
   <v>       0.38804720       0.38804720       0.34167483 </v>
   <v>       0.38804720       0.38804720       0.65832513 </v>
   <v>       0.61195278       0.61195278       0.34167483 </v>
   <v>       0.61195278       0.61195278       0.65832513 </v>
   <v>       0.44576020       0.32826710       0.58308023 </v>
   <v>       0.67173288       0.55423978       0.58308023 </v>
   <v>       0.55791699       0.44208301       0.41809300 </v>
   <v>       0.32826705       0.44576024       0.41691983 </v>
   <v>       0.55423973       0.67173293       0.41691983 </v>
   <v>       0.55423980       0.32826710       0.58308023 </v>
   <v>       0.32826712       0.55423978       0.58308023 </v>
   <v>       0.67173295       0.44576024       0.41691983 </v>
   <v>       0.44576027       0.67173293       0.41691983 </v>
   <v>       0.44208301       0.44208301       0.41809300 </v>
   <v>       0.50000000       0.38416601       0.50000000 </v>
   <v>       0.61749315       0.50000005       0.34021317 </v>
   <v>       0.61749315       0.50000005       0.65978680 </v>
   <v>       0.38250685       0.50000005       0.34021317 </v>
   <v>       0.38250685       0.50000005       0.65978680 </v>
   <v>       0.38317830       0.38317830       0.50000000 </v>
   <v>       0.61682172       0.61682172       0.50000000 </v>
   <v>       0.61682170       0.38317830       0.50000000 </v>
   <v>       0.38317828       0.61682172       0.50000000 </v>
   <v>       0.50000000       0.50000000       0.33478917 </v>
   <v>       0.50000000       0.50000000       0.66521087 </v>
   <v>       0.32826705       0.44576024       0.58308023 </v>
   <v>       0.55423973       0.67173293       0.58308023 </v>
   <v>       0.55791699       0.44208301       0.58190703 </v>
   <v>       0.44208298       0.55791702       0.41809300 </v>
   <v>       0.44208301       0.44208301       0.58190703 </v>
   <v>       0.67173295       0.44576024       0.58308023 </v>
   <v>       0.44576027       0.67173293       0.58308023 </v>
   <v>       0.55791702       0.55791702       0.41809300 </v>
   <v>       0.38416599       0.50000002       0.50000000 </v>
   <v>       0.61583401       0.50000002       0.50000000 </v>
   <v>       0.50000000       0.61749319       0.34021317 </v>
   <v>       0.50000000       0.61749319       0.65978680 </v>
   <v>       0.50000000       0.50000000       0.50000000 </v>
   <v>       0.44208298       0.55791702       0.58190703 </v>
   <v>       0.55791702       0.55791702       0.58190703 </v>
   <v>       0.50000000       0.61583404       0.50000000 </v>
   <v>       0.51138870       0.51632463       0.72992687 </v>
   <v>       0.51324417       0.51898427       0.76738677 </v>
  </varray>
  <varray name="selective"  type="logical" >
   <v type="logical" >  F  F  F </v>
   <v type="logical" >  F  F  F </v>
   <v type="logical" >  F  F  F </v>
   <v type="logical" >  F  F  F </v>
   <v type="logical" >  F  F  F </v>
   <v type="logical" >  F  F  F </v>
   <v type="logical" >  F  F  F </v>
   <v type="logical" >  F  F  F </v>
   <v type="logical" >  F  F  F </v>
   <v type="logical" >  F  F  F </v>
   <v type="logical" >  F  F  F </v>
   <v type="logical" >  F  F  F </v>
   <v type="logical" >  F  F  F </v>
   <v type="logical" >  F  F  F </v>
   <v type="logical" >  F  F  F </v>
   <v type="logical" >  F  F  F </v>
   <v type="logical" >  F  F  F </v>
   <v type="logical" >  F  F  F </v>
   <v type="logical" >  F  F  F </v>
   <v type="logical" >  F  F  F </v>
   <v type="logical" >  F  F  F </v>
   <v type="logical" >  F  F  F </v>
   <v type="logical" >  F  F  F </v>
   <v type="logical" >  F  F  F </v>
   <v type="logical" >  F  F  F </v>
   <v type="logical" >  F  F  F </v>
   <v type="logical" >  F  F  F </v>
   <v type="logical" >  F  F  F </v>
   <v type="logical" >  F  F  F </v>
   <v type="logical" >  F  F  F </v>
   <v type="logical" >  F  F  F </v>
   <v type="logical" >  F  F  F </v>
   <v type="logical" >  F  F  F </v>
   <v type="logical" >  F  F  F </v>
   <v type="logical" >  F  F  F </v>
   <v type="logical" >  F  F  F </v>
   <v type="logical" >  F  F  F </v>
   <v type="logical" >  F  F  F </v>
   <v type="logical" >  F  F  F </v>
   <v type="logical" >  F  F  F </v>
   <v type="logical" >  F  F  F </v>
   <v type="logical" >  F  F  F </v>
   <v type="logical" >  F  F  F </v>
   <v type="logical" >  F  F  F </v>
   <v type="logical" >  F  F  F </v>
   <v type="logical" >  F  F  F </v>
   <v type="logical" >  F  F  F </v>
   <v type="logical" >  F  F  F </v>
   <v type="logical" >  F  F  F </v>
   <v type="logical" >  F  F  F </v>
   <v type="logical" >  F  F  F </v>
   <v type="logical" >  F  F  F </v>
   <v type="logical" >  F  F  F </v>
   <v type="logical" >  F  F  F </v>
   <v type="logical" >  F  F  F </v>
   <v type="logical" >  F  F  F </v>
   <v type="logical" >  F  F  F </v>
  </varray>
  <nose>
   <v>      -3.00000000       0.00000000       0.00010000       0.00010000 </v>
  </nose>
 </structure>
</modeling>
