 running on    1 total cores
 distrk:  each k-point on    1 cores,    1 groups
 distr:  one band on    1 cores,    1 groups
 using from now: INCAR     
 vasp.5.4.4.18Apr17-6-g9f103f2a35 (build Sep 03 2018 23:53:05) complex          
  
 POSCAR found type information on POSCAR  Pd C  O 
 POSCAR found :  3 types and      57 ions
 scaLAPACK will be used

 ----------------------------------------------------------------------------- 
|                                                                             |
|  ADVICE TO THIS USER RUNNING 'VASP/VAMP'   (HEAR YOUR MASTER'S VOICE ...):  |
|                                                                             |
|      You enforced a specific xc-type in the INCAR file,                     |
|      a different type was found on the POTCAR file                          |
|          I HOPE YOU KNOW, WHAT YOU ARE  DOING                               |
|                                                                             |
 ----------------------------------------------------------------------------- 

 LDA part: xc-table for Pade appr. of Perdew
 POSCAR, INCAR and KPOINTS ok, starting setup
 FFT: planning ...
 WAVECAR not read
 entering main loop
       N       E                     dE             d eps       ncg     rms          rms(c)
DAV:   1     0.438448014549E+04    0.43845E+04   -0.10050E+05   688   0.815E+02
DAV:   2     0.201198031081E+04   -0.23725E+04   -0.21331E+04  1224   0.105E+02
DAV:   3     0.234101727952E+03   -0.17779E+04   -0.16712E+04  1000   0.918E+01
DAV:   4    -0.134019548627E+03   -0.36812E+03   -0.31013E+03   824   0.435E+01
DAV:   5    -0.179341238463E+03   -0.45322E+02   -0.37404E+02  1048   0.146E+01    0.140E+01
RMM:   6    -0.178684437346E+03    0.65680E+00   -0.49729E+01   723   0.864E+00    0.215E+01
RMM:   7    -0.181785609186E+03   -0.31012E+01   -0.17769E+01   855   0.438E+00    0.240E+01
RMM:   8    -0.183023055449E+03   -0.12374E+01   -0.64583E+00   803   0.322E+00    0.240E+01
RMM:   9    -0.181515409907E+03    0.15076E+01   -0.49848E+00   732   0.319E+00    0.261E+01
RMM:  10    -0.180203585371E+03    0.13118E+01   -0.27065E+00   743   0.236E+00    0.220E+01
RMM:  11    -0.178055198529E+03    0.21484E+01   -0.17687E+00   732   0.198E+00    0.191E+01
RMM:  12    -0.176896210196E+03    0.11590E+01   -0.11418E+00   723   0.160E+00    0.152E+01
RMM:  13    -0.176369977564E+03    0.52623E+00   -0.82099E-01   725   0.134E+00    0.150E+01
RMM:  14    -0.176554492150E+03   -0.18451E+00   -0.10085E+00   724   0.149E+00    0.194E+01
RMM:  15    -0.175732685489E+03    0.82181E+00   -0.97485E-01   710   0.143E+00    0.120E+01
RMM:  16    -0.175431579472E+03    0.30111E+00   -0.95540E-01   707   0.142E+00    0.116E+01
RMM:  17    -0.175371858224E+03    0.59721E-01   -0.76712E-01   702   0.128E+00    0.133E+01
RMM:  18    -0.175297845990E+03    0.74012E-01   -0.45552E-01   709   0.965E-01    0.123E+01
RMM:  19    -0.175159626207E+03    0.13822E+00   -0.38806E-01   713   0.909E-01    0.103E+01
RMM:  20    -0.175228983092E+03   -0.69357E-01   -0.30906E-01   715   0.845E-01    0.119E+01
RMM:  21    -0.174830374274E+03    0.39861E+00   -0.26758E-01   705   0.803E-01    0.908E+00
RMM:  22    -0.174749151172E+03    0.81223E-01   -0.18064E-01   700   0.629E-01    0.710E+00
RMM:  23    -0.174729254274E+03    0.19897E-01   -0.19383E-01   699   0.661E-01    0.857E+00
RMM:  24    -0.174724599081E+03    0.46552E-02   -0.18084E-01   705   0.661E-01    0.778E+00
RMM:  25    -0.174547925787E+03    0.17667E+00   -0.10107E-01   696   0.506E-01    0.508E+00
RMM:  26    -0.174481846086E+03    0.66080E-01   -0.74715E-02   694   0.416E-01    0.468E+00
RMM:  27    -0.174417405324E+03    0.64441E-01   -0.50356E-02   700   0.356E-01    0.302E+00
RMM:  28    -0.174417930375E+03   -0.52505E-03   -0.39583E-02   695   0.309E-01    0.330E+00
RMM:  29    -0.174389799588E+03    0.28131E-01   -0.26816E-02   695   0.266E-01    0.234E+00
RMM:  30    -0.174365389009E+03    0.24411E-01   -0.15660E-02   696   0.208E-01    0.152E+00
RMM:  31    -0.174362921145E+03    0.24679E-02   -0.12115E-02   695   0.168E-01    0.159E+00
RMM:  32    -0.174352677984E+03    0.10243E-01   -0.94333E-03   694   0.150E-01    0.108E+00
RMM:  33    -0.174349158122E+03    0.35199E-02   -0.68062E-03   695   0.130E-01    0.902E-01
RMM:  34    -0.174346576937E+03    0.25812E-02   -0.41763E-03   694   0.104E-01    0.721E-01
RMM:  35    -0.174346079525E+03    0.49741E-03   -0.31035E-03   692   0.900E-02    0.624E-01
RMM:  36    -0.174347114423E+03   -0.10349E-02   -0.26873E-03   693   0.797E-02    0.597E-01
RMM:  37    -0.174347217339E+03   -0.10292E-03   -0.18673E-03   689   0.711E-02    0.378E-01
RMM:  38    -0.174348816078E+03   -0.15987E-02   -0.11855E-03   690   0.565E-02    0.348E-01
RMM:  39    -0.174350967213E+03   -0.21511E-02   -0.92575E-04   689   0.475E-02    0.353E-01
RMM:  40    -0.174353109540E+03   -0.21423E-02   -0.75679E-04   680   0.435E-02    0.289E-01
RMM:  41    -0.174354833982E+03   -0.17244E-02   -0.45899E-04   546   0.338E-02    0.239E-01
RMM:  42    -0.174357331913E+03   -0.24979E-02   -0.48152E-04   542   0.337E-02    0.226E-01
RMM:  43    -0.174359111096E+03   -0.17792E-02   -0.31461E-04   441   0.280E-02    0.214E-01
RMM:  44    -0.174360862650E+03   -0.17516E-02   -0.25204E-04   418   0.242E-02    0.149E-01
RMM:  45    -0.174362744848E+03   -0.18822E-02   -0.25606E-04   426   0.233E-02    0.150E-01
RMM:  46    -0.174365219505E+03   -0.24747E-02   -0.37674E-04   485   0.245E-02    0.177E-01
RMM:  47    -0.174367249134E+03   -0.20296E-02   -0.36476E-04   468   0.224E-02    0.681E-02
RMM:  48    -0.174368048489E+03   -0.79936E-03   -0.13495E-04   421   0.146E-02    0.673E-02
RMM:  49    -0.174369509297E+03   -0.14608E-02   -0.11635E-04   408   0.129E-02    0.589E-02
RMM:  50    -0.174370197175E+03   -0.68788E-03   -0.70694E-05   409   0.103E-02    0.515E-02
RMM:  51    -0.174371125519E+03   -0.92834E-03   -0.59808E-05   412   0.929E-03    0.524E-02
RMM:  52    -0.174371721562E+03   -0.59604E-03   -0.43419E-05   403   0.800E-03    0.274E-02
RMM:  53    -0.174372129879E+03   -0.40832E-03   -0.26655E-05   369   0.612E-03    0.369E-02
RMM:  54    -0.174372646043E+03   -0.51616E-03   -0.22796E-05   336   0.566E-03    0.227E-02
RMM:  55    -0.174372801380E+03   -0.15534E-03   -0.53376E-06   167   0.412E-03    0.142E-02
RMM:  56    -0.174373143729E+03   -0.34235E-03   -0.78015E-06   222   0.431E-03    0.174E-02
RMM:  57    -0.174373300648E+03   -0.15692E-03   -0.22595E-06   127   0.353E-03    0.800E-03
RMM:  58    -0.174373552197E+03   -0.25155E-03   -0.59609E-06   170   0.396E-03    0.138E-02
RMM:  59    -0.174373814673E+03   -0.26248E-03   -0.79540E-06   193   0.401E-03    0.858E-03
RMM:  60    -0.174374017522E+03   -0.20285E-03   -0.85229E-06   181   0.390E-03    0.952E-03
RMM:  61    -0.174374155603E+03   -0.13808E-03   -0.40027E-06   137   0.369E-03    0.930E-03
RMM:  62    -0.174374270869E+03   -0.11527E-03   -0.10410E-05   191   0.393E-03    0.602E-03
RMM:  63    -0.174374364276E+03   -0.93408E-04   -0.57200E-06   150   0.356E-03
   1 F= -.17437436E+03 E0= -.17436265E+03  d E =-.468429E-01
================================= SLURM INFO ===================================
Command: run-cluster -n 1 -m 10000 -j 000037_vasp --same-node /opt/VASP/vasp
Exit code: 0
Job name: 000037_vasp
Job time: 0 days 7h:33m:32s
MPI task count: 1
Working dir: /home/pashkov/pyFitIt/pyfitit/data/adaptive_pd_co_new_2/sample/000037
Job was running on nodes: b5
Task per node: 1
       JobID     MaxRSS  MaxDiskRead MaxDiskWrite    Elapsed    JobName 
------------ ---------- ------------ ------------ ---------- ---------- 
106499                                              07:33:32 000037_va+ 
106499.batch                                        07:33:32      batch 
