<?xml version="1.0" encoding="ISO-8859-1"?>
<modeling>
 <generator>
  <i name="program" type="string">vasp </i>
  <i name="version" type="string">5.4.4.18Apr17-6-g9f103f2a35  </i>
  <i name="subversion" type="string">(build Sep 03 2018 23:53:05) complex            parallel </i>
  <i name="platform" type="string">LinuxIFC </i>
  <i name="date" type="string">2021 11 30 </i>
  <i name="time" type="string">15:12:26 </i>
 </generator>
 <incar>
  <i type="string" name="SYSTEM"> 6_Pd100_top_free_z(O)</i>
  <i type="int" name="ISTART">     0</i>
  <i type="string" name="PREC">normal   			! encut=max(enmax), ngx,y,z</i>
  <i type="string" name="ALGO"> Fast     			! Mix RMM-DIIS and Dav</i>
  <i type="logical" name="ADDGRID"> F  </i>
  <i type="int" name="ISPIN">     1</i>
  <i type="int" name="ICHARG">     2</i>
  <i type="int" name="NELM">   100</i>
  <i type="int" name="NELMIN">     6</i>
  <i type="int" name="IBRION">     2</i>
  <i name="EDIFF">      0.00010000</i>
  <i name="EDIFFG">     -0.05000000</i>
  <i type="int" name="NSW">     0</i>
  <i type="int" name="ISIF">     2</i>
  <i type="int" name="ISYM">     2</i>
  <i name="ENCUT">    400.00000000</i>
  <i type="string" name="LREAL"> Auto     			! Auto or A projection done</i>
  <i type="int" name="ISMEAR">     2</i>
  <i name="SIGMA">      0.20000000</i>
  <i type="logical" name="LWAVE"> F  </i>
  <i type="logical" name="LCHARG"> F  </i>
  <v type="int" name="KPOINT_BSE">    -1     0     0     0</v>
  <i type="int" name="MAXMEM"> 10000</i>
  <i type="int" name="NELM">   100</i>
  <i type="string" name="GGA"> RP         			! Revised PBE</i>
 </incar>
 <structure name="primitive_cell" >
  <crystal>
   <varray name="basis" >
    <v>      30.00000000       0.00000000       0.00000000 </v>
    <v>       0.00000000      30.00000000       0.00000000 </v>
    <v>       0.00000000       0.00000000      30.00000000 </v>
   </varray>
   <i name="volume">  27000.00000000 </i>
   <varray name="rec_basis" >
    <v>       0.03333333       0.00000000       0.00000000 </v>
    <v>       0.00000000       0.03333333       0.00000000 </v>
    <v>       0.00000000       0.00000000       0.03333333 </v>
   </varray>
  </crystal>
  <varray name="positions" >
   <v>       0.44576020       0.32826710       0.41691983 </v>
   <v>      -0.44576020       0.32826710       0.41691983 </v>
   <v>      -0.50000000       0.38250690       0.34021317 </v>
   <v>      -0.50000000       0.27609440      -0.50000000 </v>
   <v>       0.38804720       0.38804720       0.34167483 </v>
   <v>      -0.50000000       0.38416601      -0.50000000 </v>
   <v>       0.44208300       0.44208300       0.41809300 </v>
   <v>       0.38317830       0.38317830      -0.50000000 </v>
   <v>      -0.44208300       0.44208300       0.41809300 </v>
   <v>       0.44576020       0.32826710      -0.41691977 </v>
   <v>       0.32826705       0.44576024       0.41691983 </v>
   <v>      -0.38804720       0.38804720       0.34167483 </v>
   <v>      -0.38317830       0.38317830      -0.50000000 </v>
   <v>      -0.50000000      -0.50000000       0.33478917 </v>
   <v>      -0.50000000      -0.50000000      -0.50000000 </v>
   <v>      -0.44576020       0.32826710      -0.41691977 </v>
   <v>       0.38250685      -0.49999995       0.34021317 </v>
   <v>       0.44208300       0.44208300      -0.41809297 </v>
   <v>       0.38416599      -0.49999998      -0.50000000 </v>
   <v>      -0.44208300       0.44208300      -0.41809297 </v>
   <v>       0.44208298      -0.44208298       0.41809300 </v>
   <v>       0.32826705       0.44576024      -0.41691977 </v>
   <v>      -0.50000000       0.38250690      -0.34021320 </v>
   <v>       0.32826712      -0.44576022       0.41691983 </v>
   <v>      -0.38250685      -0.49999995       0.34021317 </v>
   <v>      -0.32826705       0.44576024       0.41691983 </v>
   <v>       0.27609443       0.49999998      -0.50000000 </v>
   <v>       0.38804720       0.38804720      -0.34167487 </v>
   <v>      -0.38416599      -0.49999998      -0.50000000 </v>
   <v>      -0.44208298      -0.44208298       0.41809300 </v>
   <v>       0.44208298      -0.44208298      -0.41809297 </v>
   <v>      -0.38804720       0.38804720      -0.34167487 </v>
   <v>       0.38804722      -0.38804722       0.34167483 </v>
   <v>       0.38250685      -0.49999995      -0.34021320 </v>
   <v>       0.32826712      -0.44576022      -0.41691977 </v>
   <v>      -0.32826705       0.44576024      -0.41691977 </v>
   <v>       0.50000000      -0.38250681       0.34021317 </v>
   <v>      -0.50000000      -0.38416596      -0.50000000 </v>
   <v>      -0.44208298      -0.44208298      -0.41809297 </v>
   <v>      -0.50000000      -0.50000000      -0.33478913 </v>
   <v>       0.38317828      -0.38317828      -0.50000000 </v>
   <v>      -0.32826712      -0.44576022       0.41691983 </v>
   <v>      -0.27609443       0.49999998      -0.50000000 </v>
   <v>      -0.38804722      -0.38804722       0.34167483 </v>
   <v>      -0.38250685      -0.49999995      -0.34021320 </v>
   <v>       0.44576027      -0.32826707       0.41691983 </v>
   <v>      -0.38317828      -0.38317828      -0.50000000 </v>
   <v>      -0.32826712      -0.44576022      -0.41691977 </v>
   <v>      -0.44576027      -0.32826707       0.41691983 </v>
   <v>       0.46075590      -0.45548630      -0.28307920 </v>
   <v>       0.38804722      -0.38804722      -0.34167487 </v>
   <v>      -0.50000000      -0.38250681      -0.34021320 </v>
   <v>       0.44576027      -0.32826707      -0.41691977 </v>
   <v>      -0.44576027      -0.32826707      -0.41691977 </v>
   <v>       0.45419460      -0.44804397      -0.24681187 </v>
   <v>      -0.50000000      -0.27609445       0.50000000 </v>
   <v>      -0.38804722      -0.38804722      -0.34167487 </v>
  </varray>
 </structure>
 <varray name="primitive_index" >
  <v type="int" >        1 </v>
  <v type="int" >        3 </v>
  <v type="int" >        5 </v>
  <v type="int" >        7 </v>
  <v type="int" >       15 </v>
  <v type="int" >       29 </v>
  <v type="int" >       28 </v>
  <v type="int" >       34 </v>
  <v type="int" >       21 </v>
  <v type="int" >       19 </v>
  <v type="int" >       22 </v>
  <v type="int" >       11 </v>
  <v type="int" >       36 </v>
  <v type="int" >       38 </v>
  <v type="int" >       52 </v>
  <v type="int" >       24 </v>
  <v type="int" >       32 </v>
  <v type="int" >       44 </v>
  <v type="int" >       48 </v>
  <v type="int" >       42 </v>
  <v type="int" >       43 </v>
  <v type="int" >       40 </v>
  <v type="int" >        6 </v>
  <v type="int" >        4 </v>
  <v type="int" >       30 </v>
  <v type="int" >       26 </v>
  <v type="int" >        8 </v>
  <v type="int" >       16 </v>
  <v type="int" >       49 </v>
  <v type="int" >       47 </v>
  <v type="int" >       53 </v>
  <v type="int" >       12 </v>
  <v type="int" >       13 </v>
  <v type="int" >       33 </v>
  <v type="int" >       25 </v>
  <v type="int" >       45 </v>
  <v type="int" >       50 </v>
  <v type="int" >       55 </v>
  <v type="int" >       54 </v>
  <v type="int" >       39 </v>
  <v type="int" >       37 </v>
  <v type="int" >        2 </v>
  <v type="int" >        9 </v>
  <v type="int" >       17 </v>
  <v type="int" >       31 </v>
  <v type="int" >       27 </v>
  <v type="int" >       35 </v>
  <v type="int" >       20 </v>
  <v type="int" >       23 </v>
  <v type="int" >       56 </v>
  <v type="int" >       14 </v>
  <v type="int" >       51 </v>
  <v type="int" >       46 </v>
  <v type="int" >       41 </v>
  <v type="int" >       57 </v>
  <v type="int" >       10 </v>
  <v type="int" >       18 </v>
 </varray>
 <kpoints>
  <generation param="Monkhorst-Pack">
   <v type="int" name="divisions">       1        1        1 </v>
   <v name="usershift">      0.00000000       0.00000000       0.00000000 </v>
   <v name="genvec1">      1.00000000       0.00000000       0.00000000 </v>
   <v name="genvec2">      0.00000000       1.00000000       0.00000000 </v>
   <v name="genvec3">      0.00000000       0.00000000       1.00000000 </v>
   <v name="shift">      0.00000000       0.00000000       0.00000000 </v>
  </generation>
  <varray name="kpointlist" >
   <v>       0.00000000       0.00000000       0.00000000 </v>
  </varray>
  <varray name="weights" >
   <v>       1.00000000 </v>
  </varray>
 </kpoints>
 <parameters>
  <separator name="general" >
   <i type="string" name="SYSTEM">6_Pd100_top_free_z(O)</i>
   <i type="logical" name="LCOMPAT"> F  </i>
  </separator>
  <separator name="electronic" >
   <i type="string" name="PREC">normal</i>
   <i name="ENMAX">    400.00000000</i>
   <i name="ENAUG">    644.87300000</i>
   <i name="EDIFF">      0.00010000</i>
   <i type="int" name="IALGO">    68</i>
   <i type="int" name="IWAVPR">    10</i>
   <i type="int" name="NBANDS">   336</i>
   <i name="NELECT">    560.00000000</i>
   <i type="int" name="TURBO">     0</i>
   <i type="int" name="IRESTART">     0</i>
   <i type="int" name="NREBOOT">     0</i>
   <i type="int" name="NMIN">     0</i>
   <i name="EREF">      0.00000000</i>
   <separator name="electronic smearing" >
    <i type="int" name="ISMEAR">     2</i>
    <i name="SIGMA">      0.20000000</i>
    <i name="KSPACING">      0.50000000</i>
    <i type="logical" name="KGAMMA"> T  </i>
   </separator>
   <separator name="electronic projectors" >
    <i type="logical" name="LREAL"> T  </i>
    <v name="ROPT">     -0.00050000     -0.00050000     -0.00050000</v>
    <i type="int" name="LMAXPAW">  -100</i>
    <i type="int" name="LMAXMIX">     2</i>
    <i type="logical" name="NLSPLINE"> F  </i>
   </separator>
   <separator name="electronic startup" >
    <i type="int" name="ISTART">     0</i>
    <i type="int" name="ICHARG">     2</i>
    <i type="int" name="INIWAV">     1</i>
   </separator>
   <separator name="electronic spin" >
    <i type="int" name="ISPIN">     1</i>
    <i type="logical" name="LNONCOLLINEAR"> F  </i>
    <v name="MAGMOM">      1.00000000      1.00000000      1.00000000      1.00000000      1.00000000      1.00000000      1.00000000      1.00000000      1.00000000      1.00000000      1.00000000      1.00000000      1.00000000      1.00000000      1.00000000      1.00000000      1.00000000      1.00000000      1.00000000      1.00000000
      1.00000000      1.00000000      1.00000000      1.00000000      1.00000000      1.00000000      1.00000000      1.00000000      1.00000000      1.00000000      1.00000000      1.00000000      1.00000000      1.00000000      1.00000000      1.00000000      1.00000000      1.00000000      1.00000000      1.00000000
      1.00000000      1.00000000      1.00000000      1.00000000      1.00000000      1.00000000      1.00000000      1.00000000      1.00000000      1.00000000      1.00000000      1.00000000      1.00000000      1.00000000      1.00000000      1.00000000      1.00000000</v>
    <i name="NUPDOWN">     -1.00000000</i>
    <i type="logical" name="LSORBIT"> F  </i>
    <v name="SAXIS">      0.00000000      0.00000000      1.00000000</v>
    <i type="logical" name="LSPIRAL"> F  </i>
    <v name="QSPIRAL">      0.00000000      0.00000000      0.00000000</v>
    <i type="logical" name="LZEROZ"> F  </i>
   </separator>
   <separator name="electronic exchange-correlation" >
    <i type="logical" name="LASPH"> F  </i>
    <i type="logical" name="LMETAGGA"> F  </i>
   </separator>
   <separator name="electronic convergence" >
    <i type="int" name="NELM">   100</i>
    <i type="int" name="NELMDL">    -5</i>
    <i type="int" name="NELMIN">     6</i>
    <i name="ENINI">    400.00000000</i>
    <separator name="electronic convergence detail" >
     <i type="logical" name="LDIAG"> T  </i>
     <i type="logical" name="LSUBROT"> F  </i>
     <i name="WEIMIN">      0.00000000</i>
     <i name="EBREAK">      0.00000007</i>
     <i name="DEPER">      0.30000000</i>
     <i type="int" name="NRMM">     4</i>
     <i name="TIME">      0.40000000</i>
    </separator>
   </separator>
   <separator name="electronic mixer" >
    <i name="AMIX">      0.40000000</i>
    <i name="BMIX">      1.00000000</i>
    <i name="AMIN">      0.10000000</i>
    <i name="AMIX_MAG">      1.60000000</i>
    <i name="BMIX_MAG">      1.00000000</i>
    <separator name="electronic mixer details" >
     <i type="int" name="IMIX">     4</i>
     <i type="logical" name="MIXFIRST"> F  </i>
     <i type="int" name="MAXMIX">   -45</i>
     <i name="WC">    100.00000000</i>
     <i type="int" name="INIMIX">     1</i>
     <i type="int" name="MIXPRE">     1</i>
     <i type="int" name="MREMOVE">     5</i>
    </separator>
   </separator>
   <separator name="electronic dipolcorrection" >
    <i type="logical" name="LDIPOL"> F  </i>
    <i type="logical" name="LMONO"> F  </i>
    <i type="int" name="IDIPOL">     0</i>
    <i name="EPSILON">      1.00000000</i>
    <v name="DIPOL">   -100.00000000   -100.00000000   -100.00000000</v>
    <i name="EFIELD">      0.00000000</i>
   </separator>
  </separator>
  <separator name="grids" >
   <i type="int" name="NGX">   150</i>
   <i type="int" name="NGY">   150</i>
   <i type="int" name="NGZ">   150</i>
   <i type="int" name="NGXF">   300</i>
   <i type="int" name="NGYF">   300</i>
   <i type="int" name="NGZF">   300</i>
   <i type="logical" name="ADDGRID"> F  </i>
  </separator>
  <separator name="ionic" >
   <i type="int" name="NSW">     0</i>
   <i type="int" name="IBRION">    -1</i>
   <i type="int" name="MDALGO">     0</i>
   <i type="int" name="ISIF">     2</i>
   <i name="PSTRESS">      0.00000000</i>
   <i name="EDIFFG">     -0.05000000</i>
   <i type="int" name="NFREE">     1</i>
   <i name="POTIM">      0.50000000</i>
   <i name="SMASS">     -3.00000000</i>
   <i name="SCALEE">      1.00000000</i>
  </separator>
  <separator name="ionic md" >
   <i name="TEBEG">      0.00010000</i>
   <i name="TEEND">      0.00010000</i>
   <i type="int" name="NBLOCK">     1</i>
   <i type="int" name="KBLOCK">     1</i>
   <i type="int" name="NPACO">   256</i>
   <i name="APACO">     16.00000000</i>
  </separator>
  <separator name="symmetry" >
   <i type="int" name="ISYM">     2</i>
   <i name="SYMPREC">      0.00001000</i>
  </separator>
  <separator name="dos" >
   <i type="int" name="LORBIT">     0</i>
   <v name="RWIGS">     -1.00000000     -1.00000000     -1.00000000</v>
   <i type="int" name="NEDOS">   301</i>
   <i name="EMIN">     10.00000000</i>
   <i name="EMAX">    -10.00000000</i>
   <i name="EFERMI">      0.00000000</i>
  </separator>
  <separator name="writing" >
   <i type="int" name="NWRITE">     2</i>
   <i type="logical" name="LWAVE"> F  </i>
   <i type="logical" name="LDOWNSAMPLE"> F  </i>
   <i type="logical" name="LCHARG"> F  </i>
   <i type="logical" name="LPARD"> F  </i>
   <i type="logical" name="LVTOT"> F  </i>
   <i type="logical" name="LVHAR"> F  </i>
   <i type="logical" name="LELF"> F  </i>
   <i type="logical" name="LOPTICS"> F  </i>
   <v name="STM">      0.00000000      0.00000000      0.00000000      0.00000000      0.00000000      0.00000000      0.00000000</v>
  </separator>
  <separator name="performance" >
   <i type="int" name="NPAR">     1</i>
   <i type="int" name="NSIM">     4</i>
   <i type="int" name="NBLK">    -1</i>
   <i type="logical" name="LPLANE"> T  </i>
   <i type="logical" name="LSCALAPACK"> T  </i>
   <i type="logical" name="LSCAAWARE"> F  </i>
   <i type="logical" name="LSCALU"> F  </i>
   <i type="logical" name="LASYNC"> F  </i>
   <i type="logical" name="LORBITALREAL"> F  </i>
  </separator>
  <separator name="miscellaneous" >
   <i type="int" name="IDIOT">     3</i>
   <i type="int" name="ISPECIAL">     0</i>
   <i type="logical" name="LMUSIC"> F  </i>
   <v name="POMASS">    106.42000000     12.01100000     16.00000000</v>
   <v name="DARWINR">      0.00000000      0.00000000      0.00000000</v>
   <v name="DARWINV">      1.00000000      1.00000000      1.00000000</v>
   <i type="logical" name="LCORR"> T  </i>
  </separator>
  <i type="logical" name="GGA_COMPAT"> T  </i>
  <i type="logical" name="LBERRY"> F  </i>
  <i type="int" name="ICORELEVEL">     0</i>
  <i type="logical" name="LDAU"> F  </i>
  <i type="int" name="I_CONSTRAINED_M">     0</i>
  <separator name="electronic exchange-correlation" >
   <i type="string" name="GGA">RP</i>
   <i type="int" name="VOSKOWN">     0</i>
   <i type="logical" name="LHFCALC"> F  </i>
   <i type="string" name="PRECFOCK"></i>
   <i type="logical" name="LSYMGRAD"> F  </i>
   <i type="logical" name="LHFONE"> F  </i>
   <i type="logical" name="LRHFCALC"> F  </i>
   <i type="logical" name="LTHOMAS"> F  </i>
   <i type="logical" name="LMODELHF"> F  </i>
   <i name="ENCUT4O">     -1.00000000</i>
   <i type="int" name="EXXOEP">     0</i>
   <i type="int" name="FOURORBIT">     0</i>
   <i name="AEXX">      0.00000000</i>
   <i name="HFALPHA">      0.00000000</i>
   <i name="MCALPHA">      0.00000000</i>
   <i name="ALDAX">      1.00000000</i>
   <i name="AGGAX">      1.00000000</i>
   <i name="ALDAC">      1.00000000</i>
   <i name="AGGAC">      1.00000000</i>
   <i type="int" name="NKREDX">     1</i>
   <i type="int" name="NKREDY">     1</i>
   <i type="int" name="NKREDZ">     1</i>
   <i type="logical" name="SHIFTRED"> F  </i>
   <i type="logical" name="ODDONLY"> F  </i>
   <i type="logical" name="EVENONLY"> F  </i>
   <i type="int" name="LMAXFOCK">     0</i>
   <i type="int" name="NMAXFOCKAE">     0</i>
   <i type="logical" name="LFOCKAEDFT"> F  </i>
   <i name="HFSCREEN">      0.00000000</i>
   <i name="HFSCREENC">      0.00000000</i>
   <i type="int" name="NBANDSGWLOW">     0</i>
  </separator>
  <separator name="vdW DFT" >
   <i type="logical" name="LUSE_VDW"> F  </i>
   <i name="Zab_VDW">     -0.84910000</i>
   <i name="PARAM1">      0.12340000</i>
   <i name="PARAM2">      1.00000000</i>
   <i name="PARAM3">      0.00000000</i>
  </separator>
  <separator name="model GW" >
   <i type="int" name="MODEL_GW">     0</i>
   <i name="MODEL_EPS0">    284.21052632</i>
   <i name="MODEL_ALPHA">      1.00000000</i>
  </separator>
  <separator name="linear response parameters" >
   <i type="logical" name="LEPSILON"> F  </i>
   <i type="logical" name="LRPA"> F  </i>
   <i type="logical" name="LNABLA"> F  </i>
   <i type="logical" name="LVEL"> F  </i>
   <i type="int" name="KINTER">     0</i>
   <i name="CSHIFT">      0.10000000</i>
   <i name="OMEGAMAX">     -1.00000000</i>
   <i name="DEG_THRESHOLD">      0.00200000</i>
   <i name="RTIME">     -0.10000000</i>
   <i name="WPLASMAI">      0.00000000</i>
   <v name="DFIELD">      0.00000000      0.00000000      0.00000000</v>
   <v name="WPLASMA">      0.00000000      0.00000000      0.00000000      0.00000000      0.00000000      0.00000000      0.00000000      0.00000000      0.00000000</v>
  </separator>
  <separator name="orbital magnetization" >
   <i type="logical" name="NUCIND"> F  </i>
   <v name="MAGPOS">      0.00000000      0.00000000      0.00000000</v>
   <i type="logical" name="LNICSALL"> T  </i>
   <i type="logical" name="ORBITALMAG"> F  </i>
   <i type="logical" name="LMAGBLOCH"> F  </i>
   <i type="logical" name="LCHIMAG"> F  </i>
   <i type="logical" name="LGAUGE"> T  </i>
   <i type="int" name="MAGATOM">     0</i>
   <v name="MAGDIPOL">      0.00000000      0.00000000      0.00000000</v>
   <v name="AVECCONST">      0.00000000      0.00000000      0.00000000</v>
  </separator>
  <separator name="response functions" >
   <i type="logical" name="LADDER"> F  </i>
   <i type="logical" name="LRPAFORCE"> F  </i>
   <i type="logical" name="LFXC"> F  </i>
   <i type="logical" name="LHARTREE"> T  </i>
   <i type="int" name="IBSE">     0</i>
   <v type="int" name="KPOINT">    -1     0     0     0</v>
   <i type="logical" name="LTCTE"> F  </i>
   <i type="logical" name="LTETE"> F  </i>
   <i type="logical" name="LTRIPLET"> F  </i>
   <i type="logical" name="LFXCEPS"> F  </i>
   <i type="logical" name="LFXHEG"> F  </i>
   <i type="int" name="NATURALO">     2</i>
   <i type="logical" name="L2ORDER"> F  </i>
   <i type="logical" name="LMP2LT"> F  </i>
   <i type="logical" name="LUSEW"> F  </i>
   <i name="ENCUTGW">     -2.00000000</i>
   <i name="ENCUTGWSOFT">     -2.00000000</i>
   <i name="ENCUTLF">     -1.00000000</i>
   <i type="int" name="LMAXMP2">    -1</i>
   <i name="SCISSOR">      0.00000000</i>
   <i type="int" name="NOMEGA">     0</i>
   <i type="int" name="NOMEGAR">     0</i>
   <i type="int" name="NBANDSGW">    -1</i>
   <i type="int" name="NBANDSO">    -1</i>
   <i type="int" name="NBANDSV">    -1</i>
   <i type="int" name="NELM">   100</i>
   <i type="int" name="NELMHF">     1</i>
   <i type="int" name="DIM">     3</i>
   <i type="int" name="ANTIRES">     0</i>
   <i name="OMEGAMAX">    -30.00000000</i>
   <i name="OMEGAMIN">    -30.00000000</i>
   <i name="OMEGATL">   -200.00000000</i>
   <i type="int" name="OMEGAGRID">   140</i>
   <i name="CSHIFT">     -0.10000000</i>
   <i type="logical" name="SELFENERGY"> F  </i>
   <i type="logical" name="LSPECTRAL"> F  </i>
   <i type="logical" name="LSPECTRALGW"> F  </i>
   <i type="logical" name="LSINGLES"> F  </i>
   <i type="logical" name="LFERMIGW"> F  </i>
   <i type="logical" name="ODDONLYGW"> F  </i>
   <i type="logical" name="EVENONLYGW"> F  </i>
   <i type="int" name="NKREDLFX">     1</i>
   <i type="int" name="NKREDLFY">     1</i>
   <i type="int" name="NKREDLFZ">     1</i>
   <i type="int" name="MAXMEM"> 10000</i>
   <i type="int" name="TELESCOPE">     0</i>
   <i type="int" name="TAUPAR">     1</i>
   <i type="int" name="OMEGAPAR">    -1</i>
   <i name="LAMBDA">      1.00000000</i>
  </separator>
  <separator name="External order field" >
   <i name="OFIELD_KAPPA">      0.00000000</i>
   <v name="OFIELD_K">      0.00000000      0.00000000      0.00000000</v>
   <i name="OFIELD_Q6_NEAR">      0.00000000</i>
   <i name="OFIELD_Q6_FAR">      0.00000000</i>
   <i name="OFIELD_A">      0.00000000</i>
  </separator>
 </parameters>
 <atominfo>
  <atoms>      57 </atoms>
  <types>       3 </types>
  <array name="atoms" >
   <dimension dim="1">ion</dimension>
   <field type="string">element</field>
   <field type="int">atomtype</field>
   <set>
    <rc><c>Pd</c><c>   1</c></rc>
    <rc><c>Pd</c><c>   1</c></rc>
    <rc><c>Pd</c><c>   1</c></rc>
    <rc><c>Pd</c><c>   1</c></rc>
    <rc><c>Pd</c><c>   1</c></rc>
    <rc><c>Pd</c><c>   1</c></rc>
    <rc><c>Pd</c><c>   1</c></rc>
    <rc><c>Pd</c><c>   1</c></rc>
    <rc><c>Pd</c><c>   1</c></rc>
    <rc><c>Pd</c><c>   1</c></rc>
    <rc><c>Pd</c><c>   1</c></rc>
    <rc><c>Pd</c><c>   1</c></rc>
    <rc><c>Pd</c><c>   1</c></rc>
    <rc><c>Pd</c><c>   1</c></rc>
    <rc><c>Pd</c><c>   1</c></rc>
    <rc><c>Pd</c><c>   1</c></rc>
    <rc><c>Pd</c><c>   1</c></rc>
    <rc><c>Pd</c><c>   1</c></rc>
    <rc><c>Pd</c><c>   1</c></rc>
    <rc><c>Pd</c><c>   1</c></rc>
    <rc><c>Pd</c><c>   1</c></rc>
    <rc><c>Pd</c><c>   1</c></rc>
    <rc><c>Pd</c><c>   1</c></rc>
    <rc><c>Pd</c><c>   1</c></rc>
    <rc><c>Pd</c><c>   1</c></rc>
    <rc><c>Pd</c><c>   1</c></rc>
    <rc><c>Pd</c><c>   1</c></rc>
    <rc><c>Pd</c><c>   1</c></rc>
    <rc><c>Pd</c><c>   1</c></rc>
    <rc><c>Pd</c><c>   1</c></rc>
    <rc><c>Pd</c><c>   1</c></rc>
    <rc><c>Pd</c><c>   1</c></rc>
    <rc><c>Pd</c><c>   1</c></rc>
    <rc><c>Pd</c><c>   1</c></rc>
    <rc><c>Pd</c><c>   1</c></rc>
    <rc><c>Pd</c><c>   1</c></rc>
    <rc><c>Pd</c><c>   1</c></rc>
    <rc><c>Pd</c><c>   1</c></rc>
    <rc><c>Pd</c><c>   1</c></rc>
    <rc><c>Pd</c><c>   1</c></rc>
    <rc><c>Pd</c><c>   1</c></rc>
    <rc><c>Pd</c><c>   1</c></rc>
    <rc><c>Pd</c><c>   1</c></rc>
    <rc><c>Pd</c><c>   1</c></rc>
    <rc><c>Pd</c><c>   1</c></rc>
    <rc><c>Pd</c><c>   1</c></rc>
    <rc><c>Pd</c><c>   1</c></rc>
    <rc><c>Pd</c><c>   1</c></rc>
    <rc><c>Pd</c><c>   1</c></rc>
    <rc><c>Pd</c><c>   1</c></rc>
    <rc><c>Pd</c><c>   1</c></rc>
    <rc><c>Pd</c><c>   1</c></rc>
    <rc><c>Pd</c><c>   1</c></rc>
    <rc><c>Pd</c><c>   1</c></rc>
    <rc><c>Pd</c><c>   1</c></rc>
    <rc><c>C </c><c>   2</c></rc>
    <rc><c>O </c><c>   3</c></rc>
   </set>
  </array>
  <array name="atomtypes" >
   <dimension dim="1">type</dimension>
   <field type="int">atomspertype</field>
   <field type="string">element</field>
   <field>mass</field>
   <field>valence</field>
   <field type="string">pseudopotential</field>
   <set>
    <rc><c>  55</c><c>Pd</c><c>    106.42000000</c><c>     10.00000000</c><c>  PAW_PBE Pd 04Jan2005                  </c></rc>
    <rc><c>   1</c><c>C </c><c>     12.01100000</c><c>      4.00000000</c><c>  PAW_PBE C 08Apr2002                   </c></rc>
    <rc><c>   1</c><c>O </c><c>     16.00000000</c><c>      6.00000000</c><c>  PAW_PBE O 08Apr2002                   </c></rc>
   </set>
  </array>
 </atominfo>
 <structure name="initialpos" >
  <crystal>
   <varray name="basis" >
    <v>      30.00000000       0.00000000       0.00000000 </v>
    <v>       0.00000000      30.00000000       0.00000000 </v>
    <v>       0.00000000       0.00000000      30.00000000 </v>
   </varray>
   <i name="volume">  27000.00000000 </i>
   <varray name="rec_basis" >
    <v>       0.03333333       0.00000000       0.00000000 </v>
    <v>       0.00000000       0.03333333       0.00000000 </v>
    <v>       0.00000000       0.00000000       0.03333333 </v>
   </varray>
  </crystal>
  <varray name="positions" >
   <v>       0.44576020       0.32826710       0.41691983 </v>
   <v>       0.67173288       0.55423978       0.41691983 </v>
   <v>       0.55423980       0.32826710       0.41691983 </v>
   <v>       0.32826712       0.55423978       0.41691983 </v>
   <v>       0.50000000       0.38250690       0.34021317 </v>
   <v>       0.50000000       0.38250690       0.65978680 </v>
   <v>       0.50000000       0.27609440       0.50000000 </v>
   <v>       0.27609443       0.49999998       0.50000000 </v>
   <v>       0.72390557       0.49999998       0.50000000 </v>
   <v>       0.50000000       0.72390555       0.50000000 </v>
   <v>       0.61195280       0.38804720       0.34167483 </v>
   <v>       0.61195280       0.38804720       0.65832513 </v>
   <v>       0.38804722       0.61195278       0.34167483 </v>
   <v>       0.38804722       0.61195278       0.65832513 </v>
   <v>       0.38804720       0.38804720       0.34167483 </v>
   <v>       0.38804720       0.38804720       0.65832513 </v>
   <v>       0.61195278       0.61195278       0.34167483 </v>
   <v>       0.61195278       0.61195278       0.65832513 </v>
   <v>       0.44576020       0.32826710       0.58308023 </v>
   <v>       0.67173288       0.55423978       0.58308023 </v>
   <v>       0.55791699       0.44208301       0.41809300 </v>
   <v>       0.32826705       0.44576024       0.41691983 </v>
   <v>       0.55423973       0.67173293       0.41691983 </v>
   <v>       0.55423980       0.32826710       0.58308023 </v>
   <v>       0.32826712       0.55423978       0.58308023 </v>
   <v>       0.67173295       0.44576024       0.41691983 </v>
   <v>       0.44576027       0.67173293       0.41691983 </v>
   <v>       0.44208301       0.44208301       0.41809300 </v>
   <v>       0.50000000       0.38416601       0.50000000 </v>
   <v>       0.61749315       0.50000005       0.34021317 </v>
   <v>       0.61749315       0.50000005       0.65978680 </v>
   <v>       0.38250685       0.50000005       0.34021317 </v>
   <v>       0.38250685       0.50000005       0.65978680 </v>
   <v>       0.38317830       0.38317830       0.50000000 </v>
   <v>       0.61682172       0.61682172       0.50000000 </v>
   <v>       0.61682170       0.38317830       0.50000000 </v>
   <v>       0.38317828       0.61682172       0.50000000 </v>
   <v>       0.50000000       0.50000000       0.33478917 </v>
   <v>       0.50000000       0.50000000       0.66521087 </v>
   <v>       0.32826705       0.44576024       0.58308023 </v>
   <v>       0.55423973       0.67173293       0.58308023 </v>
   <v>       0.55791699       0.44208301       0.58190703 </v>
   <v>       0.44208298       0.55791702       0.41809300 </v>
   <v>       0.44208301       0.44208301       0.58190703 </v>
   <v>       0.67173295       0.44576024       0.58308023 </v>
   <v>       0.44576027       0.67173293       0.58308023 </v>
   <v>       0.55791702       0.55791702       0.41809300 </v>
   <v>       0.38416599       0.50000002       0.50000000 </v>
   <v>       0.61583401       0.50000002       0.50000000 </v>
   <v>       0.50000000       0.61749319       0.34021317 </v>
   <v>       0.50000000       0.61749319       0.65978680 </v>
   <v>       0.50000000       0.50000000       0.50000000 </v>
   <v>       0.44208298       0.55791702       0.58190703 </v>
   <v>       0.55791702       0.55791702       0.58190703 </v>
   <v>       0.50000000       0.61583404       0.50000000 </v>
   <v>       0.46075590       0.54451370       0.71692080 </v>
   <v>       0.45419460       0.55195603       0.75318813 </v>
  </varray>
  <varray name="selective"  type="logical" >
   <v type="logical" >  F  F  F </v>
   <v type="logical" >  F  F  F </v>
   <v type="logical" >  F  F  F </v>
   <v type="logical" >  F  F  F </v>
   <v type="logical" >  F  F  F </v>
   <v type="logical" >  F  F  F </v>
   <v type="logical" >  F  F  F </v>
   <v type="logical" >  F  F  F </v>
   <v type="logical" >  F  F  F </v>
   <v type="logical" >  F  F  F </v>
   <v type="logical" >  F  F  F </v>
   <v type="logical" >  F  F  F </v>
   <v type="logical" >  F  F  F </v>
   <v type="logical" >  F  F  F </v>
   <v type="logical" >  F  F  F </v>
   <v type="logical" >  F  F  F </v>
   <v type="logical" >  F  F  F </v>
   <v type="logical" >  F  F  F </v>
   <v type="logical" >  F  F  F </v>
   <v type="logical" >  F  F  F </v>
   <v type="logical" >  F  F  F </v>
   <v type="logical" >  F  F  F </v>
   <v type="logical" >  F  F  F </v>
   <v type="logical" >  F  F  F </v>
   <v type="logical" >  F  F  F </v>
   <v type="logical" >  F  F  F </v>
   <v type="logical" >  F  F  F </v>
   <v type="logical" >  F  F  F </v>
   <v type="logical" >  F  F  F </v>
   <v type="logical" >  F  F  F </v>
   <v type="logical" >  F  F  F </v>
   <v type="logical" >  F  F  F </v>
   <v type="logical" >  F  F  F </v>
   <v type="logical" >  F  F  F </v>
   <v type="logical" >  F  F  F </v>
   <v type="logical" >  F  F  F </v>
   <v type="logical" >  F  F  F </v>
   <v type="logical" >  F  F  F </v>
   <v type="logical" >  F  F  F </v>
   <v type="logical" >  F  F  F </v>
   <v type="logical" >  F  F  F </v>
   <v type="logical" >  F  F  F </v>
   <v type="logical" >  F  F  F </v>
   <v type="logical" >  F  F  F </v>
   <v type="logical" >  F  F  F </v>
   <v type="logical" >  F  F  F </v>
   <v type="logical" >  F  F  F </v>
   <v type="logical" >  F  F  F </v>
   <v type="logical" >  F  F  F </v>
   <v type="logical" >  F  F  F </v>
   <v type="logical" >  F  F  F </v>
   <v type="logical" >  F  F  F </v>
   <v type="logical" >  F  F  F </v>
   <v type="logical" >  F  F  F </v>
   <v type="logical" >  F  F  F </v>
   <v type="logical" >  F  F  F </v>
   <v type="logical" >  F  F  F </v>
  </varray>
  <nose>
   <v>      -3.00000000       0.00000000       0.00010000       0.00010000 </v>
  </nose>
 </structure>
 <calculation>
  <scstep>
   <time name="dav">  524.83  524.97</time>
   <time name="total">  543.23  543.37</time>
   <energy>
    <i name="alphaZ">     75.25431677 </i>
    <i name="ewald"> 138772.46551459 </i>
    <i name="hartreedc">-182137.97067771 </i>
    <i name="XCdc">  -1703.46581208 </i>
    <i name="pawpsdc">  44873.02882129 </i>
    <i name="pawaedc"> -41398.84523641 </i>
    <i name="eentropy">      0.01543953 </i>
    <i name="bandstr">    817.49228556 </i>
    <i name="atom">  45086.50549395 </i>
    <i name="e_fr_energy">   4384.48014549 </i>
    <i name="e_wo_entrp">   4384.46470595 </i>
    <i name="e_0_energy">   4384.47628560 </i>
   </energy>
  </scstep>
  <scstep>
   <time name="dav">  833.60  833.62</time>
   <time name="total">  833.60  833.62</time>
   <energy>
    <i name="e_fr_energy">   2011.98031081 </i>
    <i name="e_wo_entrp">   2012.00184921 </i>
    <i name="e_0_energy">   2011.98569541 </i>
   </energy>
  </scstep>
  <scstep>
   <time name="dav">  704.22  704.23</time>
   <time name="total">  704.22  704.23</time>
   <energy>
    <i name="e_fr_energy">    234.10172795 </i>
    <i name="e_wo_entrp">    234.06423869 </i>
    <i name="e_0_energy">    234.09235564 </i>
   </energy>
  </scstep>
  <scstep>
   <time name="dav">  602.29  602.30</time>
   <time name="total">  602.29  602.30</time>
   <energy>
    <i name="e_fr_energy">   -134.01954863 </i>
    <i name="e_wo_entrp">   -134.05785742 </i>
    <i name="e_0_energy">   -134.02912583 </i>
   </energy>
  </scstep>
  <scstep>
   <time name="dav">  723.47  723.49</time>
   <time name="total">  760.79  760.80</time>
   <energy>
    <i name="e_fr_energy">   -179.34123846 </i>
    <i name="e_wo_entrp">   -179.89769019 </i>
    <i name="e_0_energy">   -179.48035140 </i>
   </energy>
  </scstep>
  <scstep>
   <time name="diag">   99.80   99.80</time>
   <time name="diis">  288.35  288.36</time>
   <time name="orth">   20.20   20.20</time>
   <time name="total">  462.30  462.31</time>
   <energy>
    <i name="e_fr_energy">   -178.68443735 </i>
    <i name="e_wo_entrp">   -178.58123205 </i>
    <i name="e_0_energy">   -178.65863602 </i>
   </energy>
  </scstep>
  <scstep>
   <time name="diag">   96.57   96.58</time>
   <time name="diis">  337.65  337.66</time>
   <time name="orth">   20.20   20.20</time>
   <time name="total">  509.03  509.04</time>
   <energy>
    <i name="e_fr_energy">   -181.78560919 </i>
    <i name="e_wo_entrp">   -181.75218040 </i>
    <i name="e_0_energy">   -181.77725199 </i>
   </energy>
  </scstep>
  <scstep>
   <time name="diag">   99.72   99.72</time>
   <time name="diis">  320.06  320.06</time>
   <time name="orth">   20.22   20.22</time>
   <time name="total">  495.49  495.50</time>
   <energy>
    <i name="e_fr_energy">   -183.02305545 </i>
    <i name="e_wo_entrp">   -182.87909224 </i>
    <i name="e_0_energy">   -182.98706465 </i>
   </energy>
  </scstep>
  <scstep>
   <time name="diag">   99.92   99.92</time>
   <time name="diis">  291.20  291.20</time>
   <time name="orth">   20.26   20.26</time>
   <time name="total">  466.92  466.93</time>
   <energy>
    <i name="e_fr_energy">   -181.51540991 </i>
    <i name="e_wo_entrp">   -181.47106489 </i>
    <i name="e_0_energy">   -181.50432365 </i>
   </energy>
  </scstep>
  <scstep>
   <time name="diag">   99.97   99.98</time>
   <time name="diis">  295.34  295.34</time>
   <time name="orth">   20.35   20.35</time>
   <time name="total">  470.94  470.96</time>
   <energy>
    <i name="e_fr_energy">   -180.20358537 </i>
    <i name="e_wo_entrp">   -180.06953717 </i>
    <i name="e_0_energy">   -180.17007332 </i>
   </energy>
  </scstep>
  <scstep>
   <time name="diag">  100.34  100.34</time>
   <time name="diis">  288.75  288.75</time>
   <time name="orth">   19.82   19.82</time>
   <time name="total">  462.86  462.87</time>
   <energy>
    <i name="e_fr_energy">   -178.05519853 </i>
    <i name="e_wo_entrp">   -178.07250115 </i>
    <i name="e_0_energy">   -178.05952419 </i>
   </energy>
  </scstep>
  <scstep>
   <time name="diag">   98.43   98.43</time>
   <time name="diis">  285.96  285.96</time>
   <time name="orth">   20.28   20.28</time>
   <time name="total">  459.51  459.52</time>
   <energy>
    <i name="e_fr_energy">   -176.89621020 </i>
    <i name="e_wo_entrp">   -176.81862617 </i>
    <i name="e_0_energy">   -176.87681419 </i>
   </energy>
  </scstep>
  <scstep>
   <time name="diag">  100.45  100.45</time>
   <time name="diis">  288.31  288.31</time>
   <time name="orth">   20.33   20.33</time>
   <time name="total">  464.50  464.51</time>
   <energy>
    <i name="e_fr_energy">   -176.36997756 </i>
    <i name="e_wo_entrp">   -176.35326378 </i>
    <i name="e_0_energy">   -176.36579912 </i>
   </energy>
  </scstep>
  <scstep>
   <time name="diag">  100.28  100.29</time>
   <time name="diis">  287.74  287.75</time>
   <time name="orth">   20.32   20.32</time>
   <time name="total">  464.01  464.02</time>
   <energy>
    <i name="e_fr_energy">   -176.55449215 </i>
    <i name="e_wo_entrp">   -176.54835821 </i>
    <i name="e_0_energy">   -176.55295866 </i>
   </energy>
  </scstep>
  <scstep>
   <time name="diag">  100.44  100.45</time>
   <time name="diis">  282.84  282.85</time>
   <time name="orth">   20.15   20.15</time>
   <time name="total">  458.83  458.84</time>
   <energy>
    <i name="e_fr_energy">   -175.73268549 </i>
    <i name="e_wo_entrp">   -175.61417413 </i>
    <i name="e_0_energy">   -175.70305765 </i>
   </energy>
  </scstep>
  <scstep>
   <time name="diag">  100.94  100.94</time>
   <time name="diis">  281.59  281.60</time>
   <time name="orth">   20.27   20.27</time>
   <time name="total">  458.30  458.31</time>
   <energy>
    <i name="e_fr_energy">   -175.43157947 </i>
    <i name="e_wo_entrp">   -175.35529964 </i>
    <i name="e_0_energy">   -175.41250951 </i>
   </energy>
  </scstep>
  <scstep>
   <time name="diag">  100.49  100.49</time>
   <time name="diis">  279.33  279.33</time>
   <time name="orth">   20.19   20.19</time>
   <time name="total">  455.80  455.82</time>
   <energy>
    <i name="e_fr_energy">   -175.37185822 </i>
    <i name="e_wo_entrp">   -175.33929041 </i>
    <i name="e_0_energy">   -175.36371627 </i>
   </energy>
  </scstep>
  <scstep>
   <time name="diag">  100.42  100.42</time>
   <time name="diis">  282.40  282.41</time>
   <time name="orth">   20.27   20.27</time>
   <time name="total">  458.78  458.80</time>
   <energy>
    <i name="e_fr_energy">   -175.29784599 </i>
    <i name="e_wo_entrp">   -175.31158975 </i>
    <i name="e_0_energy">   -175.30128193 </i>
   </energy>
  </scstep>
  <scstep>
   <time name="diag">  100.49  100.49</time>
   <time name="diis">  284.19  284.20</time>
   <time name="orth">   20.21   20.21</time>
   <time name="total">  460.59  460.60</time>
   <energy>
    <i name="e_fr_energy">   -175.15962621 </i>
    <i name="e_wo_entrp">   -175.21788124 </i>
    <i name="e_0_energy">   -175.17418997 </i>
   </energy>
  </scstep>
  <scstep>
   <time name="diag">  100.22  100.22</time>
   <time name="diis">  277.80  277.81</time>
   <time name="orth">   19.81   19.81</time>
   <time name="total">  452.84  452.85</time>
   <energy>
    <i name="e_fr_energy">   -175.22898309 </i>
    <i name="e_wo_entrp">   -175.27058890 </i>
    <i name="e_0_energy">   -175.23938454 </i>
   </energy>
  </scstep>
  <scstep>
   <time name="diag">   99.05   99.05</time>
   <time name="diis">  281.31  281.33</time>
   <time name="orth">   20.13   20.13</time>
   <time name="total">  456.09  456.11</time>
   <energy>
    <i name="e_fr_energy">   -174.83037427 </i>
    <i name="e_wo_entrp">   -174.85117443 </i>
    <i name="e_0_energy">   -174.83557431 </i>
   </energy>
  </scstep>
  <scstep>
   <time name="diag">  100.78  100.78</time>
   <time name="diis">  278.17  278.18</time>
   <time name="orth">   20.25   20.25</time>
   <time name="total">  455.19  455.20</time>
   <energy>
    <i name="e_fr_energy">   -174.74915117 </i>
    <i name="e_wo_entrp">   -174.74455730 </i>
    <i name="e_0_energy">   -174.74800270 </i>
   </energy>
  </scstep>
  <scstep>
   <time name="diag">  100.62  100.62</time>
   <time name="diis">  277.49  277.50</time>
   <time name="orth">   20.32   20.32</time>
   <time name="total">  454.61  454.62</time>
   <energy>
    <i name="e_fr_energy">   -174.72925427 </i>
    <i name="e_wo_entrp">   -174.70173885 </i>
    <i name="e_0_energy">   -174.72237542 </i>
   </energy>
  </scstep>
  <scstep>
   <time name="diag">  100.50  100.50</time>
   <time name="diis">  279.95  279.96</time>
   <time name="orth">   20.41   20.41</time>
   <time name="total">  456.96  456.97</time>
   <energy>
    <i name="e_fr_energy">   -174.72459908 </i>
    <i name="e_wo_entrp">   -174.67189694 </i>
    <i name="e_0_energy">   -174.71142355 </i>
   </energy>
  </scstep>
  <scstep>
   <time name="diag">  100.54  100.54</time>
   <time name="diis">  267.14  267.15</time>
   <time name="orth">   20.17   20.17</time>
   <time name="total">  443.28  443.29</time>
   <energy>
    <i name="e_fr_energy">   -174.54792579 </i>
    <i name="e_wo_entrp">   -174.49980215 </i>
    <i name="e_0_energy">   -174.53589488 </i>
   </energy>
  </scstep>
  <scstep>
   <time name="diag">  100.66  100.66</time>
   <time name="diis">  275.20  275.21</time>
   <time name="orth">   20.39   20.39</time>
   <time name="total">  452.40  452.41</time>
   <energy>
    <i name="e_fr_energy">   -174.48184609 </i>
    <i name="e_wo_entrp">   -174.44960401 </i>
    <i name="e_0_energy">   -174.47378557 </i>
   </energy>
  </scstep>
  <scstep>
   <time name="diag">  100.70  100.71</time>
   <time name="diis">  277.99  278.00</time>
   <time name="orth">   20.48   20.48</time>
   <time name="total">  455.46  455.47</time>
   <energy>
    <i name="e_fr_energy">   -174.41740532 </i>
    <i name="e_wo_entrp">   -174.37842863 </i>
    <i name="e_0_energy">   -174.40766115 </i>
   </energy>
  </scstep>
  <scstep>
   <time name="diag">  100.80  100.80</time>
   <time name="diis">  275.67  275.68</time>
   <time name="orth">   20.45   20.45</time>
   <time name="total">  453.44  453.45</time>
   <energy>
    <i name="e_fr_energy">   -174.41793037 </i>
    <i name="e_wo_entrp">   -174.37490152 </i>
    <i name="e_0_energy">   -174.40717316 </i>
   </energy>
  </scstep>
  <scstep>
   <time name="diag">  100.71  100.72</time>
   <time name="diis">  275.37  275.38</time>
   <time name="orth">   19.77   19.77</time>
   <time name="total">  450.88  450.89</time>
   <energy>
    <i name="e_fr_energy">   -174.38979959 </i>
    <i name="e_wo_entrp">   -174.34685677 </i>
    <i name="e_0_energy">   -174.37906388 </i>
   </energy>
  </scstep>
  <scstep>
   <time name="diag">   98.33   98.33</time>
   <time name="diis">  273.34  273.35</time>
   <time name="orth">   20.44   20.44</time>
   <time name="total">  448.11  448.12</time>
   <energy>
    <i name="e_fr_energy">   -174.36538901 </i>
    <i name="e_wo_entrp">   -174.32086339 </i>
    <i name="e_0_energy">   -174.35425760 </i>
   </energy>
  </scstep>
  <scstep>
   <time name="diag">  100.63  100.63</time>
   <time name="diis">  276.06  276.07</time>
   <time name="orth">   20.43   20.43</time>
   <time name="total">  454.04  454.05</time>
   <energy>
    <i name="e_fr_energy">   -174.36292115 </i>
    <i name="e_wo_entrp">   -174.31058206 </i>
    <i name="e_0_energy">   -174.34983637 </i>
   </energy>
  </scstep>
  <scstep>
   <time name="diag">  100.65  100.65</time>
   <time name="diis">  275.41  275.41</time>
   <time name="orth">   20.45   20.45</time>
   <time name="total">  453.69  453.70</time>
   <energy>
    <i name="e_fr_energy">   -174.35267798 </i>
    <i name="e_wo_entrp">   -174.31084250 </i>
    <i name="e_0_energy">   -174.34221911 </i>
   </energy>
  </scstep>
  <scstep>
   <time name="diag">  100.78  100.78</time>
   <time name="diis">  275.86  275.86</time>
   <time name="orth">   20.38   20.38</time>
   <time name="total">  454.42  454.43</time>
   <energy>
    <i name="e_fr_energy">   -174.34915812 </i>
    <i name="e_wo_entrp">   -174.30125031 </i>
    <i name="e_0_energy">   -174.33718117 </i>
   </energy>
  </scstep>
  <scstep>
   <time name="diag">  100.95  100.95</time>
   <time name="diis">  274.95  274.96</time>
   <time name="orth">   20.52   20.53</time>
   <time name="total">  453.94  453.96</time>
   <energy>
    <i name="e_fr_energy">   -174.34657694 </i>
    <i name="e_wo_entrp">   -174.29826457 </i>
    <i name="e_0_energy">   -174.33449884 </i>
   </energy>
  </scstep>
  <scstep>
   <time name="diag">  100.80  100.80</time>
   <time name="diis">  275.39  275.39</time>
   <time name="orth">   20.32   20.32</time>
   <time name="total">  454.64  454.67</time>
   <energy>
    <i name="e_fr_energy">   -174.34607953 </i>
    <i name="e_wo_entrp">   -174.29650711 </i>
    <i name="e_0_energy">   -174.33368642 </i>
   </energy>
  </scstep>
  <scstep>
   <time name="diag">  100.96  100.96</time>
   <time name="diis">  275.62  275.63</time>
   <time name="orth">   20.45   20.45</time>
   <time name="total">  454.74  454.75</time>
   <energy>
    <i name="e_fr_energy">   -174.34711442 </i>
    <i name="e_wo_entrp">   -174.29882041 </i>
    <i name="e_0_energy">   -174.33504092 </i>
   </energy>
  </scstep>
  <scstep>
   <time name="diag">  100.93  100.93</time>
   <time name="diis">  273.75  273.76</time>
   <time name="orth">   20.47   20.47</time>
   <time name="total">  453.21  453.22</time>
   <energy>
    <i name="e_fr_energy">   -174.34721734 </i>
    <i name="e_wo_entrp">   -174.30088797 </i>
    <i name="e_0_energy">   -174.33563500 </i>
   </energy>
  </scstep>
  <scstep>
   <time name="diag">   98.15   98.15</time>
   <time name="diis">  267.14  267.16</time>
   <time name="orth">   20.40   20.40</time>
   <time name="total">  443.82  443.84</time>
   <energy>
    <i name="e_fr_energy">   -174.34881608 </i>
    <i name="e_wo_entrp">   -174.30079397 </i>
    <i name="e_0_energy">   -174.33681055 </i>
   </energy>
  </scstep>
  <scstep>
   <time name="diag">  100.70  100.70</time>
   <time name="diis">  273.58  273.58</time>
   <time name="orth">   20.20   20.20</time>
   <time name="total">  452.74  452.75</time>
   <energy>
    <i name="e_fr_energy">   -174.35096721 </i>
    <i name="e_wo_entrp">   -174.30343036 </i>
    <i name="e_0_energy">   -174.33908300 </i>
   </energy>
  </scstep>
  <scstep>
   <time name="diag">  100.71  100.71</time>
   <time name="diis">  268.94  268.94</time>
   <time name="orth">   20.12   20.12</time>
   <time name="total">  448.82  448.83</time>
   <energy>
    <i name="e_fr_energy">   -174.35310954 </i>
    <i name="e_wo_entrp">   -174.30640579 </i>
    <i name="e_0_energy">   -174.34143360 </i>
   </energy>
  </scstep>
  <scstep>
   <time name="diag">  100.62  100.62</time>
   <time name="diis">  222.00  222.00</time>
   <time name="orth">   20.53   20.53</time>
   <time name="total">  401.68  401.68</time>
   <energy>
    <i name="e_fr_energy">   -174.35483398 </i>
    <i name="e_wo_entrp">   -174.30865615 </i>
    <i name="e_0_energy">   -174.34328952 </i>
   </energy>
  </scstep>
  <scstep>
   <time name="diag">  100.94  100.95</time>
   <time name="diis">  219.67  219.68</time>
   <time name="orth">   20.25   20.25</time>
   <time name="total">  399.83  399.84</time>
   <energy>
    <i name="e_fr_energy">   -174.35733191 </i>
    <i name="e_wo_entrp">   -174.31080579 </i>
    <i name="e_0_energy">   -174.34570038 </i>
   </energy>
  </scstep>
  <scstep>
   <time name="diag">  100.62  100.62</time>
   <time name="diis">  184.52  184.52</time>
   <time name="orth">   20.55   20.55</time>
   <time name="total">  365.52  365.53</time>
   <energy>
    <i name="e_fr_energy">   -174.35911110 </i>
    <i name="e_wo_entrp">   -174.31112728 </i>
    <i name="e_0_energy">   -174.34711514 </i>
   </energy>
  </scstep>
  <scstep>
   <time name="diag">  100.88  100.88</time>
   <time name="diis">  174.15  174.15</time>
   <time name="orth">   20.55   20.55</time>
   <time name="total">  355.51  355.52</time>
   <energy>
    <i name="e_fr_energy">   -174.36086265 </i>
    <i name="e_wo_entrp">   -174.31370477 </i>
    <i name="e_0_energy">   -174.34907318 </i>
   </energy>
  </scstep>
  <scstep>
   <time name="diag">  101.44  101.44</time>
   <time name="diis">  176.30  176.31</time>
   <time name="orth">   20.55   20.55</time>
   <time name="total">  359.08  359.09</time>
   <energy>
    <i name="e_fr_energy">   -174.36274485 </i>
    <i name="e_wo_entrp">   -174.31555664 </i>
    <i name="e_0_energy">   -174.35094780 </i>
   </energy>
  </scstep>
  <scstep>
   <time name="diag">  101.84  101.84</time>
   <time name="diis">  195.87  195.87</time>
   <time name="orth">   20.54   20.54</time>
   <time name="total">  379.27  379.28</time>
   <energy>
    <i name="e_fr_energy">   -174.36521950 </i>
    <i name="e_wo_entrp">   -174.31802450 </i>
    <i name="e_0_energy">   -174.35342075 </i>
   </energy>
  </scstep>
  <scstep>
   <time name="diag">  101.56  101.57</time>
   <time name="diis">  189.28  189.29</time>
   <time name="orth">   19.92   19.92</time>
   <time name="total">  369.77  369.78</time>
   <energy>
    <i name="e_fr_energy">   -174.36724913 </i>
    <i name="e_wo_entrp">   -174.32001190 </i>
    <i name="e_0_energy">   -174.35543982 </i>
   </energy>
  </scstep>
  <scstep>
   <time name="diag">   98.77   98.77</time>
   <time name="diis">  163.01  163.01</time>
   <time name="orth">   17.91   17.91</time>
   <time name="total">  335.15  335.16</time>
   <energy>
    <i name="e_fr_energy">   -174.36804849 </i>
    <i name="e_wo_entrp">   -174.32124001 </i>
    <i name="e_0_energy">   -174.35634637 </i>
   </energy>
  </scstep>
  <scstep>
   <time name="diag">   89.50   89.50</time>
   <time name="diis">  148.98  148.98</time>
   <time name="orth">   17.93   17.93</time>
   <time name="total">  311.06  311.06</time>
   <energy>
    <i name="e_fr_energy">   -174.36950930 </i>
    <i name="e_wo_entrp">   -174.32254368 </i>
    <i name="e_0_energy">   -174.35776789 </i>
   </energy>
  </scstep>
  <scstep>
   <time name="diag">   89.67   89.67</time>
   <time name="diis">  150.35  150.35</time>
   <time name="orth">   17.91   17.91</time>
   <time name="total">  312.50  312.51</time>
   <energy>
    <i name="e_fr_energy">   -174.37019717 </i>
    <i name="e_wo_entrp">   -174.32354847 </i>
    <i name="e_0_energy">   -174.35853500 </i>
   </energy>
  </scstep>
  <scstep>
   <time name="diag">   89.64   89.64</time>
   <time name="diis">  150.79  150.79</time>
   <time name="orth">   17.89   17.89</time>
   <time name="total">  312.81  312.82</time>
   <energy>
    <i name="e_fr_energy">   -174.37112552 </i>
    <i name="e_wo_entrp">   -174.32449722 </i>
    <i name="e_0_energy">   -174.35946844 </i>
   </energy>
  </scstep>
  <scstep>
   <time name="diag">   89.67   89.67</time>
   <time name="diis">  148.53  148.53</time>
   <time name="orth">   17.88   17.88</time>
   <time name="total">  310.38  310.39</time>
   <energy>
    <i name="e_fr_energy">   -174.37172156 </i>
    <i name="e_wo_entrp">   -174.32480725 </i>
    <i name="e_0_energy">   -174.35999298 </i>
   </energy>
  </scstep>
  <scstep>
   <time name="diag">   89.76   89.76</time>
   <time name="diis">  142.47  142.47</time>
   <time name="orth">   17.53   17.53</time>
   <time name="total">  304.62  304.63</time>
   <energy>
    <i name="e_fr_energy">   -174.37212988 </i>
    <i name="e_wo_entrp">   -174.32545743 </i>
    <i name="e_0_energy">   -174.36046177 </i>
   </energy>
  </scstep>
  <scstep>
   <time name="diag">   89.82   89.82</time>
   <time name="diis">  136.84  136.84</time>
   <time name="orth">   17.56   17.56</time>
   <time name="total">  299.44  299.44</time>
   <energy>
    <i name="e_fr_energy">   -174.37264604 </i>
    <i name="e_wo_entrp">   -174.32565672 </i>
    <i name="e_0_energy">   -174.36089871 </i>
   </energy>
  </scstep>
  <scstep>
   <time name="diag">   89.39   89.40</time>
   <time name="diis">  109.76  109.76</time>
   <time name="orth">   17.86   17.86</time>
   <time name="total">  271.31  271.31</time>
   <energy>
    <i name="e_fr_energy">   -174.37280138 </i>
    <i name="e_wo_entrp">   -174.32597940 </i>
    <i name="e_0_energy">   -174.36109589 </i>
   </energy>
  </scstep>
  <scstep>
   <time name="diag">   89.71   89.72</time>
   <time name="diis">  116.88  116.88</time>
   <time name="orth">   17.85   17.85</time>
   <time name="total">  278.57  278.58</time>
   <energy>
    <i name="e_fr_energy">   -174.37314373 </i>
    <i name="e_wo_entrp">   -174.32629873 </i>
    <i name="e_0_energy">   -174.36143248 </i>
   </energy>
  </scstep>
  <scstep>
   <time name="diag">   89.70   89.71</time>
   <time name="diis">  101.75  101.76</time>
   <time name="orth">   17.67   17.67</time>
   <time name="total">  263.00  263.01</time>
   <energy>
    <i name="e_fr_energy">   -174.37330065 </i>
    <i name="e_wo_entrp">   -174.32640894 </i>
    <i name="e_0_energy">   -174.36157772 </i>
   </energy>
  </scstep>
  <scstep>
   <time name="diag">   89.95   89.96</time>
   <time name="diis">  107.61  107.62</time>
   <time name="orth">   17.66   17.66</time>
   <time name="total">  268.73  268.73</time>
   <energy>
    <i name="e_fr_energy">   -174.37355220 </i>
    <i name="e_wo_entrp">   -174.32672956 </i>
    <i name="e_0_energy">   -174.36184654 </i>
   </energy>
  </scstep>
  <scstep>
   <time name="diag">   89.88   89.88</time>
   <time name="diis">  112.10  112.10</time>
   <time name="orth">   17.62   17.62</time>
   <time name="total">  273.41  273.42</time>
   <energy>
    <i name="e_fr_energy">   -174.37381467 </i>
    <i name="e_wo_entrp">   -174.32698861 </i>
    <i name="e_0_energy">   -174.36210816 </i>
   </energy>
  </scstep>
  <scstep>
   <time name="diag">   89.96   89.96</time>
   <time name="diis">  110.67  110.67</time>
   <time name="orth">   17.60   17.60</time>
   <time name="total">  271.41  271.42</time>
   <energy>
    <i name="e_fr_energy">   -174.37401752 </i>
    <i name="e_wo_entrp">   -174.32721335 </i>
    <i name="e_0_energy">   -174.36231648 </i>
   </energy>
  </scstep>
  <scstep>
   <time name="diag">   89.82   89.83</time>
   <time name="diis">  101.65  101.66</time>
   <time name="orth">   16.86   16.86</time>
   <time name="total">  259.26  259.27</time>
   <energy>
    <i name="e_fr_energy">   -174.37415560 </i>
    <i name="e_wo_entrp">   -174.32728049 </i>
    <i name="e_0_energy">   -174.36243682 </i>
   </energy>
  </scstep>
  <scstep>
   <time name="diag">   85.58   85.59</time>
   <time name="diis">  107.68  107.69</time>
   <time name="orth">   16.78   16.78</time>
   <time name="total">  260.08  260.09</time>
   <energy>
    <i name="e_fr_energy">   -174.37427087 </i>
    <i name="e_wo_entrp">   -174.32742899 </i>
    <i name="e_0_energy">   -174.36256040 </i>
   </energy>
  </scstep>
  <scstep>
   <time name="diag">   85.37   85.37</time>
   <time name="diis">  100.00  100.00</time>
   <time name="orth">   15.90   15.90</time>
   <time name="total">  216.30  216.31</time>
   <energy>
    <i name="alphaZ">     75.25431677 </i>
    <i name="ewald"> 138772.46551459 </i>
    <i name="hartreedc">-183142.51725691 </i>
    <i name="XCdc">  -1692.77801131 </i>
    <i name="pawpsdc">  46063.84584900 </i>
    <i name="pawaedc"> -42533.23014807 </i>
    <i name="eentropy">     -0.04684294 </i>
    <i name="bandstr">  -2803.87327936 </i>
    <i name="atom">  45086.50549395 </i>
    <i name="e_fr_energy">   -174.37436428 </i>
    <i name="e_wo_entrp">   -174.32752134 </i>
    <i name="e_0_energy">   -174.36265354 </i>
   </energy>
  </scstep>
  <structure>
   <crystal>
    <varray name="basis" >
     <v>      30.00000000       0.00000000       0.00000000 </v>
     <v>       0.00000000      30.00000000       0.00000000 </v>
     <v>       0.00000000       0.00000000      30.00000000 </v>
    </varray>
    <i name="volume">  27000.00000000 </i>
    <varray name="rec_basis" >
     <v>       0.03333333       0.00000000       0.00000000 </v>
     <v>       0.00000000       0.03333333       0.00000000 </v>
     <v>       0.00000000       0.00000000       0.03333333 </v>
    </varray>
   </crystal>
   <varray name="positions" >
    <v>       0.44576020       0.32826710       0.41691983 </v>
    <v>       0.67173288       0.55423978       0.41691983 </v>
    <v>       0.55423980       0.32826710       0.41691983 </v>
    <v>       0.32826712       0.55423978       0.41691983 </v>
    <v>       0.50000000       0.38250690       0.34021317 </v>
    <v>       0.50000000       0.38250690       0.65978680 </v>
    <v>       0.50000000       0.27609440       0.50000000 </v>
    <v>       0.27609443       0.49999998       0.50000000 </v>
    <v>       0.72390557       0.49999998       0.50000000 </v>
    <v>       0.50000000       0.72390555       0.50000000 </v>
    <v>       0.61195280       0.38804720       0.34167483 </v>
    <v>       0.61195280       0.38804720       0.65832513 </v>
    <v>       0.38804722       0.61195278       0.34167483 </v>
    <v>       0.38804722       0.61195278       0.65832513 </v>
    <v>       0.38804720       0.38804720       0.34167483 </v>
    <v>       0.38804720       0.38804720       0.65832513 </v>
    <v>       0.61195278       0.61195278       0.34167483 </v>
    <v>       0.61195278       0.61195278       0.65832513 </v>
    <v>       0.44576020       0.32826710       0.58308023 </v>
    <v>       0.67173288       0.55423978       0.58308023 </v>
    <v>       0.55791699       0.44208301       0.41809300 </v>
    <v>       0.32826705       0.44576024       0.41691983 </v>
    <v>       0.55423973       0.67173293       0.41691983 </v>
    <v>       0.55423980       0.32826710       0.58308023 </v>
    <v>       0.32826712       0.55423978       0.58308023 </v>
    <v>       0.67173295       0.44576024       0.41691983 </v>
    <v>       0.44576027       0.67173293       0.41691983 </v>
    <v>       0.44208301       0.44208301       0.41809300 </v>
    <v>       0.50000000       0.38416601       0.50000000 </v>
    <v>       0.61749315       0.50000005       0.34021317 </v>
    <v>       0.61749315       0.50000005       0.65978680 </v>
    <v>       0.38250685       0.50000005       0.34021317 </v>
    <v>       0.38250685       0.50000005       0.65978680 </v>
    <v>       0.38317830       0.38317830       0.50000000 </v>
    <v>       0.61682172       0.61682172       0.50000000 </v>
    <v>       0.61682170       0.38317830       0.50000000 </v>
    <v>       0.38317828       0.61682172       0.50000000 </v>
    <v>       0.50000000       0.50000000       0.33478917 </v>
    <v>       0.50000000       0.50000000       0.66521087 </v>
    <v>       0.32826705       0.44576024       0.58308023 </v>
    <v>       0.55423973       0.67173293       0.58308023 </v>
    <v>       0.55791699       0.44208301       0.58190703 </v>
    <v>       0.44208298       0.55791702       0.41809300 </v>
    <v>       0.44208301       0.44208301       0.58190703 </v>
    <v>       0.67173295       0.44576024       0.58308023 </v>
    <v>       0.44576027       0.67173293       0.58308023 </v>
    <v>       0.55791702       0.55791702       0.41809300 </v>
    <v>       0.38416599       0.50000002       0.50000000 </v>
    <v>       0.61583401       0.50000002       0.50000000 </v>
    <v>       0.50000000       0.61749319       0.34021317 </v>
    <v>       0.50000000       0.61749319       0.65978680 </v>
    <v>       0.50000000       0.50000000       0.50000000 </v>
    <v>       0.44208298       0.55791702       0.58190703 </v>
    <v>       0.55791702       0.55791702       0.58190703 </v>
    <v>       0.50000000       0.61583404       0.50000000 </v>
    <v>       0.46075590       0.54451370       0.71692080 </v>
    <v>       0.45419460       0.55195603       0.75318813 </v>
   </varray>
  </structure>
  <varray name="forces" >
   <v>       0.69983699       1.10616127       0.28892868 </v>
   <v>      -1.10631355      -0.69990260       0.28898107 </v>
   <v>      -0.69936417       1.10814215       0.29344770 </v>
   <v>       1.11230984      -0.69993894       0.29038926 </v>
   <v>      -0.00270256       0.40437286       1.28085031 </v>
   <v>       0.01224999       0.39507074      -1.30133279 </v>
   <v>      -0.00340857       1.51269934       0.00198784 </v>
   <v>       1.50747287       0.00990281       0.01319765 </v>
   <v>      -1.51205298       0.00398840       0.00212846 </v>
   <v>      -0.01124748      -1.50758503       0.01560807 </v>
   <v>      -0.75127654       0.75179630       1.07438657 </v>
   <v>      -0.75512716       0.75548941      -1.06965554 </v>
   <v>       0.75502841      -0.75454841       1.07167693 </v>
   <v>       0.74744707      -0.75076903      -1.04706258 </v>
   <v>       0.75108874       0.75477159       1.07371025 </v>
   <v>       0.75125215       0.74957287      -1.07427699 </v>
   <v>      -0.75495492      -0.75105489       1.07364543 </v>
   <v>      -0.74655844      -0.74936362      -1.07426617 </v>
   <v>       0.69895230       1.10765883      -0.29197705 </v>
   <v>      -1.10651274      -0.69900709      -0.29269913 </v>
   <v>       0.11385620      -0.11372234      -0.15164729 </v>
   <v>       1.11240430       0.69799364       0.28341835 </v>
   <v>      -0.69807246      -1.11312854       0.28301181 </v>
   <v>      -0.69846390       1.11183970      -0.29013697 </v>
   <v>       1.08411664      -0.70624416      -0.31642421 </v>
   <v>      -1.10859671       0.69948152       0.29350602 </v>
   <v>       0.70025425      -1.11283937       0.29030198 </v>
   <v>      -0.11274050      -0.11434464      -0.15373340 </v>
   <v>       0.00552669      -0.22135845      -0.00205521 </v>
   <v>      -0.40483276       0.00270947       1.28098524 </v>
   <v>      -0.38769015      -0.01414010      -1.30313868 </v>
   <v>       0.40993180       0.00188566       1.28003475 </v>
   <v>       0.48588720       0.03832939      -1.23011376 </v>
   <v>       0.82882124       0.82314375      -0.00365559 </v>
   <v>      -0.82388909      -0.82971762      -0.00134257 </v>
   <v>      -0.81922738       0.81844867      -0.01480486 </v>
   <v>       0.83330684      -0.83363715       0.00833101 </v>
   <v>      -0.00724491       0.00842763       1.18311531 </v>
   <v>      -0.81054987       0.89688976       0.03350149 </v>
   <v>       1.10601750       0.70814650      -0.28287528 </v>
   <v>      -0.70708149      -1.10268869      -0.28481889 </v>
   <v>       0.08680362      -0.08920740       0.19136622 </v>
   <v>      -0.11413686       0.11391274      -0.15362035 </v>
   <v>      -0.13025239      -0.15735202       0.12598007 </v>
   <v>      -1.11198394       0.69962720      -0.28880028 </v>
   <v>       0.70604095      -1.07915997      -0.32137092 </v>
   <v>       0.11451492       0.11258396      -0.15456818 </v>
   <v>      -0.22243774       0.00204765      -0.00146829 </v>
   <v>       0.22198795      -0.00619633      -0.00312901 </v>
   <v>      -0.00168770      -0.41013683       1.28011849 </v>
   <v>      -0.09146030      -0.59063734      -1.14713102 </v>
   <v>      -0.00333296       0.00324918       0.00309795 </v>
   <v>      -0.15051330       0.14475360       0.06728938 </v>
   <v>       0.16175392       0.13201315       0.12128381 </v>
   <v>      -0.00239492       0.22271192      -0.00139753 </v>
   <v>       1.61182830      -1.58692444      -5.01652281 </v>
   <v>      -0.76258227       0.79578334       3.77974526 </v>
  </varray>
  <varray name="stress" >
   <v>      -6.79137663       0.03671739       0.03801387 </v>
   <v>       0.03671739      -6.81610997      -0.02796752 </v>
   <v>       0.03801386      -0.02796750      -6.61781201 </v>
  </varray>
  <energy>
   <i name="e_fr_energy">   -174.37436428 </i>
   <i name="e_wo_entrp">   -174.36265354 </i>
   <i name="e_0_energy">     -0.04684294 </i>
  </energy>
  <time name="totalsc">27105.2427106.08</time>
  <eigenvalues>
   <array>
    <dimension dim="1">band</dimension>
    <dimension dim="2">kpoint</dimension>
    <dimension dim="3">spin</dimension>
    <field>eigene</field>
    <field>occ</field>
    <set>
     <set comment="spin 1">
      <set comment="kpoint 1">
       <r>  -28.7704    1.0000 </r>
       <r>  -13.3813    1.0000 </r>
       <r>  -11.1607    1.0000 </r>
       <r>  -11.1483    1.0000 </r>
       <r>   -9.6696    1.0000 </r>
       <r>   -6.6298    1.0000 </r>
       <r>   -6.1224    1.0000 </r>
       <r>   -6.1182    1.0000 </r>
       <r>   -6.0997    1.0000 </r>
       <r>   -5.8153    1.0000 </r>
       <r>   -5.8051    1.0000 </r>
       <r>   -5.8010    1.0000 </r>
       <r>   -5.7338    1.0000 </r>
       <r>   -5.6856    1.0000 </r>
       <r>   -5.6765    1.0000 </r>
       <r>   -5.6756    1.0000 </r>
       <r>   -5.6735    1.0000 </r>
       <r>   -5.6264    1.0000 </r>
       <r>   -5.6117    1.0000 </r>
       <r>   -5.5983    1.0000 </r>
       <r>   -5.5907    1.0000 </r>
       <r>   -5.5873    1.0000 </r>
       <r>   -5.5837    1.0000 </r>
       <r>   -5.5784    1.0000 </r>
       <r>   -5.5707    1.0000 </r>
       <r>   -5.5396    1.0000 </r>
       <r>   -5.5367    1.0000 </r>
       <r>   -5.5217    1.0000 </r>
       <r>   -5.5130    1.0000 </r>
       <r>   -5.5109    1.0000 </r>
       <r>   -5.5066    1.0000 </r>
       <r>   -5.5057    1.0000 </r>
       <r>   -5.5050    1.0000 </r>
       <r>   -5.5023    1.0000 </r>
       <r>   -5.4993    1.0000 </r>
       <r>   -5.4889    1.0000 </r>
       <r>   -5.4710    1.0000 </r>
       <r>   -5.4683    1.0000 </r>
       <r>   -5.4639    1.0000 </r>
       <r>   -5.4622    1.0000 </r>
       <r>   -5.4572    1.0000 </r>
       <r>   -5.4559    1.0000 </r>
       <r>   -5.4553    1.0000 </r>
       <r>   -5.4520    1.0000 </r>
       <r>   -5.4328    1.0000 </r>
       <r>   -5.4190    1.0000 </r>
       <r>   -5.4175    1.0000 </r>
       <r>   -5.4169    1.0000 </r>
       <r>   -5.4155    1.0000 </r>
       <r>   -5.4143    1.0000 </r>
       <r>   -5.4098    1.0000 </r>
       <r>   -5.4044    1.0000 </r>
       <r>   -5.3942    1.0000 </r>
       <r>   -5.3888    1.0000 </r>
       <r>   -5.3834    1.0000 </r>
       <r>   -5.3327    1.0000 </r>
       <r>   -5.3230    1.0000 </r>
       <r>   -5.3211    1.0000 </r>
       <r>   -5.3139    1.0000 </r>
       <r>   -5.3085    1.0000 </r>
       <r>   -5.3058    1.0000 </r>
       <r>   -5.3041    1.0000 </r>
       <r>   -5.2958    1.0000 </r>
       <r>   -5.2921    1.0000 </r>
       <r>   -5.2896    1.0000 </r>
       <r>   -5.2816    1.0000 </r>
       <r>   -5.2719    1.0000 </r>
       <r>   -5.2429    1.0000 </r>
       <r>   -5.2216    1.0000 </r>
       <r>   -5.2113    1.0000 </r>
       <r>   -5.1983    1.0000 </r>
       <r>   -5.1756    1.0000 </r>
       <r>   -5.1690    1.0000 </r>
       <r>   -5.1683    1.0000 </r>
       <r>   -5.1671    1.0000 </r>
       <r>   -5.1631    1.0000 </r>
       <r>   -5.1597    1.0000 </r>
       <r>   -5.1563    1.0000 </r>
       <r>   -5.1419    1.0000 </r>
       <r>   -5.1369    1.0000 </r>
       <r>   -5.1338    1.0000 </r>
       <r>   -5.1183    1.0000 </r>
       <r>   -5.1141    1.0000 </r>
       <r>   -5.1127    1.0000 </r>
       <r>   -5.1054    1.0000 </r>
       <r>   -5.0935    1.0000 </r>
       <r>   -5.0909    1.0000 </r>
       <r>   -5.0636    1.0000 </r>
       <r>   -5.0574    1.0000 </r>
       <r>   -5.0481    1.0000 </r>
       <r>   -5.0466    1.0000 </r>
       <r>   -5.0444    1.0000 </r>
       <r>   -5.0417    1.0000 </r>
       <r>   -5.0372    1.0000 </r>
       <r>   -5.0367    1.0000 </r>
       <r>   -5.0355    1.0000 </r>
       <r>   -5.0247    1.0000 </r>
       <r>   -5.0164    1.0000 </r>
       <r>   -5.0099    1.0000 </r>
       <r>   -5.0061    1.0000 </r>
       <r>   -5.0045    1.0000 </r>
       <r>   -4.9948    1.0000 </r>
       <r>   -4.9942    1.0000 </r>
       <r>   -4.9920    1.0000 </r>
       <r>   -4.9904    1.0000 </r>
       <r>   -4.9829    1.0000 </r>
       <r>   -4.9781    1.0000 </r>
       <r>   -4.9765    1.0000 </r>
       <r>   -4.9701    1.0000 </r>
       <r>   -4.9691    1.0000 </r>
       <r>   -4.9675    1.0000 </r>
       <r>   -4.9577    1.0000 </r>
       <r>   -4.9572    1.0000 </r>
       <r>   -4.9477    1.0000 </r>
       <r>   -4.9432    1.0000 </r>
       <r>   -4.9413    1.0000 </r>
       <r>   -4.9340    1.0000 </r>
       <r>   -4.9165    1.0000 </r>
       <r>   -4.9119    1.0000 </r>
       <r>   -4.9081    1.0000 </r>
       <r>   -4.9046    1.0000 </r>
       <r>   -4.9008    1.0000 </r>
       <r>   -4.8973    1.0000 </r>
       <r>   -4.8954    1.0000 </r>
       <r>   -4.8905    1.0000 </r>
       <r>   -4.8864    1.0000 </r>
       <r>   -4.8538    1.0000 </r>
       <r>   -4.8504    1.0000 </r>
       <r>   -4.8385    1.0000 </r>
       <r>   -4.8337    1.0000 </r>
       <r>   -4.8332    1.0000 </r>
       <r>   -4.8288    1.0000 </r>
       <r>   -4.8225    1.0000 </r>
       <r>   -4.8196    1.0000 </r>
       <r>   -4.8185    1.0000 </r>
       <r>   -4.8170    1.0000 </r>
       <r>   -4.7879    0.9999 </r>
       <r>   -4.7867    0.9999 </r>
       <r>   -4.7831    0.9999 </r>
       <r>   -4.7769    0.9999 </r>
       <r>   -4.7646    0.9999 </r>
       <r>   -4.7521    0.9998 </r>
       <r>   -4.7304    0.9997 </r>
       <r>   -4.7279    0.9996 </r>
       <r>   -4.7258    0.9996 </r>
       <r>   -4.7254    0.9996 </r>
       <r>   -4.7251    0.9996 </r>
       <r>   -4.6995    0.9994 </r>
       <r>   -4.6978    0.9993 </r>
       <r>   -4.6908    0.9992 </r>
       <r>   -4.6836    0.9991 </r>
       <r>   -4.6766    0.9990 </r>
       <r>   -4.6715    0.9989 </r>
       <r>   -4.6665    0.9988 </r>
       <r>   -4.6636    0.9987 </r>
       <r>   -4.6622    0.9987 </r>
       <r>   -4.6609    0.9986 </r>
       <r>   -4.6607    0.9986 </r>
       <r>   -4.6586    0.9986 </r>
       <r>   -4.6536    0.9985 </r>
       <r>   -4.6443    0.9982 </r>
       <r>   -4.6402    0.9981 </r>
       <r>   -4.6394    0.9981 </r>
       <r>   -4.6385    0.9980 </r>
       <r>   -4.6347    0.9979 </r>
       <r>   -4.6333    0.9979 </r>
       <r>   -4.6323    0.9978 </r>
       <r>   -4.6252    0.9976 </r>
       <r>   -4.6203    0.9974 </r>
       <r>   -4.6170    0.9973 </r>
       <r>   -4.6061    0.9969 </r>
       <r>   -4.6046    0.9969 </r>
       <r>   -4.5962    0.9965 </r>
       <r>   -4.5871    0.9962 </r>
       <r>   -4.5847    0.9961 </r>
       <r>   -4.5824    0.9960 </r>
       <r>   -4.5810    0.9960 </r>
       <r>   -4.5766    0.9958 </r>
       <r>   -4.5747    0.9958 </r>
       <r>   -4.5619    0.9954 </r>
       <r>   -4.5556    0.9952 </r>
       <r>   -4.5503    0.9952 </r>
       <r>   -4.5450    0.9951 </r>
       <r>   -4.5430    0.9951 </r>
       <r>   -4.5399    0.9951 </r>
       <r>   -4.5398    0.9951 </r>
       <r>   -4.5389    0.9951 </r>
       <r>   -4.5386    0.9951 </r>
       <r>   -4.5355    0.9951 </r>
       <r>   -4.5345    0.9951 </r>
       <r>   -4.5021    0.9964 </r>
       <r>   -4.4967    0.9970 </r>
       <r>   -4.4946    0.9972 </r>
       <r>   -4.4907    0.9976 </r>
       <r>   -4.4891    0.9978 </r>
       <r>   -4.4804    0.9991 </r>
       <r>   -4.4709    1.0008 </r>
       <r>   -4.4679    1.0014 </r>
       <r>   -4.4624    1.0027 </r>
       <r>   -4.4594    1.0034 </r>
       <r>   -4.4549    1.0046 </r>
       <r>   -4.4527    1.0052 </r>
       <r>   -4.4484    1.0065 </r>
       <r>   -4.4451    1.0075 </r>
       <r>   -4.4424    1.0084 </r>
       <r>   -4.4417    1.0086 </r>
       <r>   -4.4361    1.0105 </r>
       <r>   -4.4352    1.0109 </r>
       <r>   -4.4332    1.0116 </r>
       <r>   -4.4270    1.0140 </r>
       <r>   -4.4201    1.0168 </r>
       <r>   -4.4065    1.0228 </r>
       <r>   -4.4006    1.0256 </r>
       <r>   -4.3973    1.0271 </r>
       <r>   -4.3956    1.0279 </r>
       <r>   -4.3904    1.0305 </r>
       <r>   -4.3879    1.0317 </r>
       <r>   -4.3872    1.0320 </r>
       <r>   -4.3866    1.0323 </r>
       <r>   -4.3723    1.0390 </r>
       <r>   -4.3653    1.0421 </r>
       <r>   -4.3597    1.0443 </r>
       <r>   -4.3461    1.0488 </r>
       <r>   -4.3361    1.0509 </r>
       <r>   -4.3308    1.0515 </r>
       <r>   -4.3296    1.0516 </r>
       <r>   -4.3253    1.0516 </r>
       <r>   -4.3247    1.0516 </r>
       <r>   -4.3236    1.0515 </r>
       <r>   -4.3213    1.0514 </r>
       <r>   -4.3201    1.0512 </r>
       <r>   -4.3175    1.0509 </r>
       <r>   -4.3147    1.0503 </r>
       <r>   -4.3138    1.0501 </r>
       <r>   -4.3106    1.0492 </r>
       <r>   -4.3095    1.0488 </r>
       <r>   -4.3075    1.0481 </r>
       <r>   -4.3046    1.0468 </r>
       <r>   -4.3029    1.0460 </r>
       <r>   -4.2956    1.0416 </r>
       <r>   -4.2938    1.0404 </r>
       <r>   -4.2873    1.0348 </r>
       <r>   -4.2817    1.0292 </r>
       <r>   -4.2788    1.0258 </r>
       <r>   -4.2786    1.0255 </r>
       <r>   -4.2771    1.0237 </r>
       <r>   -4.2721    1.0170 </r>
       <r>   -4.2694    1.0129 </r>
       <r>   -4.2680    1.0108 </r>
       <r>   -4.2664    1.0083 </r>
       <r>   -4.2520    0.9811 </r>
       <r>   -4.2462    0.9679 </r>
       <r>   -4.2440    0.9624 </r>
       <r>   -4.2435    0.9614 </r>
       <r>   -4.2379    0.9469 </r>
       <r>   -4.2369    0.9441 </r>
       <r>   -4.2361    0.9419 </r>
       <r>   -4.2346    0.9376 </r>
       <r>   -4.2325    0.9316 </r>
       <r>   -4.2302    0.9247 </r>
       <r>   -4.2254    0.9100 </r>
       <r>   -4.2245    0.9070 </r>
       <r>   -4.2235    0.9039 </r>
       <r>   -4.2222    0.8997 </r>
       <r>   -4.2202    0.8930 </r>
       <r>   -4.2093    0.8537 </r>
       <r>   -4.2086    0.8510 </r>
       <r>   -4.2057    0.8399 </r>
       <r>   -4.2052    0.8382 </r>
       <r>   -4.2016    0.8234 </r>
       <r>   -4.2010    0.8211 </r>
       <r>   -4.1890    0.7701 </r>
       <r>   -4.1816    0.7362 </r>
       <r>   -4.1802    0.7299 </r>
       <r>   -4.1747    0.7037 </r>
       <r>   -4.1689    0.6756 </r>
       <r>   -4.1661    0.6617 </r>
       <r>   -4.1615    0.6382 </r>
       <r>   -4.1565    0.6125 </r>
       <r>   -4.1551    0.6056 </r>
       <r>   -4.1544    0.6018 </r>
       <r>   -4.1411    0.5322 </r>
       <r>   -4.1247    0.4457 </r>
       <r>   -4.1174    0.4075 </r>
       <r>   -4.1149    0.3946 </r>
       <r>   -4.1125    0.3821 </r>
       <r>   -4.1040    0.3391 </r>
       <r>   -4.0963    0.3013 </r>
       <r>   -4.0355    0.0628 </r>
       <r>   -3.9608   -0.0487 </r>
       <r>   -3.8892   -0.0351 </r>
       <r>   -3.8117   -0.0037 </r>
       <r>   -3.8102   -0.0033 </r>
       <r>   -3.7768    0.0027 </r>
       <r>   -3.4862    0.0001 </r>
       <r>   -3.4822    0.0001 </r>
       <r>   -3.3684    0.0000 </r>
       <r>   -3.0533    0.0000 </r>
       <r>   -3.0468    0.0000 </r>
       <r>   -3.0234    0.0000 </r>
       <r>   -3.0126    0.0000 </r>
       <r>   -3.0000    0.0000 </r>
       <r>   -2.9947    0.0000 </r>
       <r>   -2.9301    0.0000 </r>
       <r>   -2.8360    0.0000 </r>
       <r>   -2.6034    0.0000 </r>
       <r>   -2.5066    0.0000 </r>
       <r>   -2.5046    0.0000 </r>
       <r>   -2.2474    0.0000 </r>
       <r>   -2.1149    0.0000 </r>
       <r>   -2.1125    0.0000 </r>
       <r>   -2.1058    0.0000 </r>
       <r>   -1.9999    0.0000 </r>
       <r>   -1.9557    0.0000 </r>
       <r>   -1.9284    0.0000 </r>
       <r>   -1.8826    0.0000 </r>
       <r>   -1.8373    0.0000 </r>
       <r>   -1.7591    0.0000 </r>
       <r>   -1.7188    0.0000 </r>
       <r>   -1.6664    0.0000 </r>
       <r>   -1.6181    0.0000 </r>
       <r>   -1.5618    0.0000 </r>
       <r>   -1.5164    0.0000 </r>
       <r>   -1.4568    0.0000 </r>
       <r>   -1.3814    0.0000 </r>
       <r>   -1.1136    0.0000 </r>
       <r>   -1.0732    0.0000 </r>
       <r>   -0.9957    0.0000 </r>
       <r>   -0.9769    0.0000 </r>
       <r>   -0.9688    0.0000 </r>
       <r>   -0.9421    0.0000 </r>
       <r>   -0.9230    0.0000 </r>
       <r>   -0.9138    0.0000 </r>
       <r>   -0.8861    0.0000 </r>
       <r>   -0.7966    0.0000 </r>
       <r>   -0.5743    0.0000 </r>
      </set>
     </set>
    </set>
   </array>
  </eigenvalues>
  <separator name="orbital magnetization" >
   <v name="MAGDIPOLOUT">      0.00000000      0.00000000      0.00000000</v>
  </separator>
  <dos>
   <i name="efermi">     -4.13499828 </i>
   <total>
    <array>
     <dimension dim="1">gridpoints</dimension>
     <dimension dim="2">spin</dimension>
     <field>energy</field>
     <field>total</field>
     <field>integrated</field>
     <set>
      <set comment="spin 1">
       <r>   -30.7704     0.0000     0.0000 </r>
       <r>   -30.6631     0.0000     0.0000 </r>
       <r>   -30.5558     0.0000     0.0000 </r>
       <r>   -30.4484     0.0000     0.0000 </r>
       <r>   -30.3411     0.0000     0.0000 </r>
       <r>   -30.2338     0.0000     0.0000 </r>
       <r>   -30.1265     0.0000     0.0000 </r>
       <r>   -30.0192     0.0000     0.0000 </r>
       <r>   -29.9118     0.0000     0.0000 </r>
       <r>   -29.8045     0.0000     0.0000 </r>
       <r>   -29.6972     0.0000     0.0000 </r>
       <r>   -29.5899     0.0000     0.0000 </r>
       <r>   -29.4826     0.0003     0.0000 </r>
       <r>   -29.3752     0.0047     0.0005 </r>
       <r>   -29.2679     0.0352     0.0043 </r>
       <r>   -29.1606     0.0488     0.0095 </r>
       <r>   -29.0533    -0.4193    -0.0355 </r>
       <r>   -28.9460    -0.5856    -0.0983 </r>
       <r>   -28.8386     4.0805     0.3396 </r>
       <r>   -28.7313     9.8942     1.4015 </r>
       <r>   -28.6240     6.1141     2.0576 </r>
       <r>   -28.5167     0.0456     2.0625 </r>
       <r>   -28.4094    -0.6381     1.9940 </r>
       <r>   -28.3020    -0.0038     1.9936 </r>
       <r>   -28.1947     0.0498     1.9990 </r>
       <r>   -28.0874     0.0089     1.9999 </r>
       <r>   -27.9801     0.0006     2.0000 </r>
       <r>   -27.8728     0.0000     2.0000 </r>
       <r>   -27.7654     0.0000     2.0000 </r>
       <r>   -27.6581     0.0000     2.0000 </r>
       <r>   -27.5508     0.0000     2.0000 </r>
       <r>   -27.4435     0.0000     2.0000 </r>
       <r>   -27.3362     0.0000     2.0000 </r>
       <r>   -27.2288     0.0000     2.0000 </r>
       <r>   -27.1215     0.0000     2.0000 </r>
       <r>   -27.0142     0.0000     2.0000 </r>
       <r>   -26.9069     0.0000     2.0000 </r>
       <r>   -26.7996     0.0000     2.0000 </r>
       <r>   -26.6922     0.0000     2.0000 </r>
       <r>   -26.5849     0.0000     2.0000 </r>
       <r>   -26.4776     0.0000     2.0000 </r>
       <r>   -26.3703     0.0000     2.0000 </r>
       <r>   -26.2630     0.0000     2.0000 </r>
       <r>   -26.1556     0.0000     2.0000 </r>
       <r>   -26.0483     0.0000     2.0000 </r>
       <r>   -25.9410     0.0000     2.0000 </r>
       <r>   -25.8337     0.0000     2.0000 </r>
       <r>   -25.7264     0.0000     2.0000 </r>
       <r>   -25.6190     0.0000     2.0000 </r>
       <r>   -25.5117     0.0000     2.0000 </r>
       <r>   -25.4044     0.0000     2.0000 </r>
       <r>   -25.2971     0.0000     2.0000 </r>
       <r>   -25.1897     0.0000     2.0000 </r>
       <r>   -25.0824     0.0000     2.0000 </r>
       <r>   -24.9751     0.0000     2.0000 </r>
       <r>   -24.8678     0.0000     2.0000 </r>
       <r>   -24.7605     0.0000     2.0000 </r>
       <r>   -24.6531     0.0000     2.0000 </r>
       <r>   -24.5458     0.0000     2.0000 </r>
       <r>   -24.4385     0.0000     2.0000 </r>
       <r>   -24.3312     0.0000     2.0000 </r>
       <r>   -24.2239     0.0000     2.0000 </r>
       <r>   -24.1165     0.0000     2.0000 </r>
       <r>   -24.0092     0.0000     2.0000 </r>
       <r>   -23.9019     0.0000     2.0000 </r>
       <r>   -23.7946     0.0000     2.0000 </r>
       <r>   -23.6873     0.0000     2.0000 </r>
       <r>   -23.5799     0.0000     2.0000 </r>
       <r>   -23.4726     0.0000     2.0000 </r>
       <r>   -23.3653     0.0000     2.0000 </r>
       <r>   -23.2580     0.0000     2.0000 </r>
       <r>   -23.1507     0.0000     2.0000 </r>
       <r>   -23.0433     0.0000     2.0000 </r>
       <r>   -22.9360     0.0000     2.0000 </r>
       <r>   -22.8287     0.0000     2.0000 </r>
       <r>   -22.7214     0.0000     2.0000 </r>
       <r>   -22.6141     0.0000     2.0000 </r>
       <r>   -22.5067     0.0000     2.0000 </r>
       <r>   -22.3994     0.0000     2.0000 </r>
       <r>   -22.2921     0.0000     2.0000 </r>
       <r>   -22.1848     0.0000     2.0000 </r>
       <r>   -22.0775     0.0000     2.0000 </r>
       <r>   -21.9701     0.0000     2.0000 </r>
       <r>   -21.8628     0.0000     2.0000 </r>
       <r>   -21.7555     0.0000     2.0000 </r>
       <r>   -21.6482     0.0000     2.0000 </r>
       <r>   -21.5409     0.0000     2.0000 </r>
       <r>   -21.4335     0.0000     2.0000 </r>
       <r>   -21.3262     0.0000     2.0000 </r>
       <r>   -21.2189     0.0000     2.0000 </r>
       <r>   -21.1116     0.0000     2.0000 </r>
       <r>   -21.0043     0.0000     2.0000 </r>
       <r>   -20.8969     0.0000     2.0000 </r>
       <r>   -20.7896     0.0000     2.0000 </r>
       <r>   -20.6823     0.0000     2.0000 </r>
       <r>   -20.5750     0.0000     2.0000 </r>
       <r>   -20.4676     0.0000     2.0000 </r>
       <r>   -20.3603     0.0000     2.0000 </r>
       <r>   -20.2530     0.0000     2.0000 </r>
       <r>   -20.1457     0.0000     2.0000 </r>
       <r>   -20.0384     0.0000     2.0000 </r>
       <r>   -19.9310     0.0000     2.0000 </r>
       <r>   -19.8237     0.0000     2.0000 </r>
       <r>   -19.7164     0.0000     2.0000 </r>
       <r>   -19.6091     0.0000     2.0000 </r>
       <r>   -19.5018     0.0000     2.0000 </r>
       <r>   -19.3944     0.0000     2.0000 </r>
       <r>   -19.2871     0.0000     2.0000 </r>
       <r>   -19.1798     0.0000     2.0000 </r>
       <r>   -19.0725     0.0000     2.0000 </r>
       <r>   -18.9652     0.0000     2.0000 </r>
       <r>   -18.8578     0.0000     2.0000 </r>
       <r>   -18.7505     0.0000     2.0000 </r>
       <r>   -18.6432     0.0000     2.0000 </r>
       <r>   -18.5359     0.0000     2.0000 </r>
       <r>   -18.4286     0.0000     2.0000 </r>
       <r>   -18.3212     0.0000     2.0000 </r>
       <r>   -18.2139     0.0000     2.0000 </r>
       <r>   -18.1066     0.0000     2.0000 </r>
       <r>   -17.9993     0.0000     2.0000 </r>
       <r>   -17.8920     0.0000     2.0000 </r>
       <r>   -17.7846     0.0000     2.0000 </r>
       <r>   -17.6773     0.0000     2.0000 </r>
       <r>   -17.5700     0.0000     2.0000 </r>
       <r>   -17.4627     0.0000     2.0000 </r>
       <r>   -17.3554     0.0000     2.0000 </r>
       <r>   -17.2480     0.0000     2.0000 </r>
       <r>   -17.1407     0.0000     2.0000 </r>
       <r>   -17.0334     0.0000     2.0000 </r>
       <r>   -16.9261     0.0000     2.0000 </r>
       <r>   -16.8188     0.0000     2.0000 </r>
       <r>   -16.7114     0.0000     2.0000 </r>
       <r>   -16.6041     0.0000     2.0000 </r>
       <r>   -16.4968     0.0000     2.0000 </r>
       <r>   -16.3895     0.0000     2.0000 </r>
       <r>   -16.2822     0.0000     2.0000 </r>
       <r>   -16.1748     0.0000     2.0000 </r>
       <r>   -16.0675     0.0000     2.0000 </r>
       <r>   -15.9602     0.0000     2.0000 </r>
       <r>   -15.8529     0.0000     2.0000 </r>
       <r>   -15.7456     0.0000     2.0000 </r>
       <r>   -15.6382     0.0000     2.0000 </r>
       <r>   -15.5309     0.0000     2.0000 </r>
       <r>   -15.4236     0.0000     2.0000 </r>
       <r>   -15.3163     0.0000     2.0000 </r>
       <r>   -15.2089     0.0000     2.0000 </r>
       <r>   -15.1016     0.0000     2.0000 </r>
       <r>   -14.9943     0.0000     2.0000 </r>
       <r>   -14.8870     0.0000     2.0000 </r>
       <r>   -14.7797     0.0000     2.0000 </r>
       <r>   -14.6723     0.0000     2.0000 </r>
       <r>   -14.5650     0.0000     2.0000 </r>
       <r>   -14.4577     0.0000     2.0000 </r>
       <r>   -14.3504     0.0000     2.0000 </r>
       <r>   -14.2431     0.0000     2.0000 </r>
       <r>   -14.1357     0.0001     2.0000 </r>
       <r>   -14.0284     0.0017     2.0002 </r>
       <r>   -13.9211     0.0179     2.0021 </r>
       <r>   -13.8138     0.0633     2.0089 </r>
       <r>   -13.7065    -0.1430     1.9936 </r>
       <r>   -13.5991    -0.8118     1.9064 </r>
       <r>   -13.4918     1.5000     2.0674 </r>
       <r>   -13.3845     8.3714     2.9658 </r>
       <r>   -13.2772     8.7033     3.8999 </r>
       <r>   -13.1699     1.8412     4.0975 </r>
       <r>   -13.0625    -0.8166     4.0098 </r>
       <r>   -12.9552    -0.1780     3.9907 </r>
       <r>   -12.8479     0.0641     3.9976 </r>
       <r>   -12.7406     0.0201     3.9998 </r>
       <r>   -12.6333     0.0020     4.0000 </r>
       <r>   -12.5259     0.0001     4.0000 </r>
       <r>   -12.4186     0.0000     4.0000 </r>
       <r>   -12.3113     0.0000     4.0000 </r>
       <r>   -12.2040     0.0000     4.0000 </r>
       <r>   -12.0967     0.0000     4.0000 </r>
       <r>   -11.9893     0.0000     4.0000 </r>
       <r>   -11.8820     0.0003     4.0000 </r>
       <r>   -11.7747     0.0066     4.0007 </r>
       <r>   -11.6674     0.0564     4.0068 </r>
       <r>   -11.5601     0.1195     4.0196 </r>
       <r>   -11.4527    -0.6171     3.9534 </r>
       <r>   -11.3454    -1.4773     3.7948 </r>
       <r>   -11.2381     6.1344     4.4532 </r>
       <r>   -11.1308    19.0279     6.4953 </r>
       <r>   -11.0235    14.2810     8.0279 </r>
       <r>   -10.9161     1.1731     8.1538 </r>
       <r>   -10.8088    -1.4660     7.9965 </r>
       <r>   -10.7015    -0.1073     7.9850 </r>
       <r>   -10.5942     0.1135     7.9972 </r>
       <r>   -10.4868     0.0245     7.9998 </r>
       <r>   -10.3795     0.0022     8.0000 </r>
       <r>   -10.2722     0.0050     8.0006 </r>
       <r>   -10.1649     0.0363     8.0045 </r>
       <r>   -10.0576     0.0463     8.0094 </r>
       <r>    -9.9502    -0.4364     7.9626 </r>
       <r>    -9.8429    -0.5528     7.9033 </r>
       <r>    -9.7356     4.2358     8.3578 </r>
       <r>    -9.6283     9.9269     9.4232 </r>
       <r>    -9.5210     5.9572    10.0625 </r>
       <r>    -9.4136    -0.0204    10.0603 </r>
       <r>    -9.3063    -0.6221     9.9936 </r>
       <r>    -9.1990     0.0020     9.9938 </r>
       <r>    -9.0917     0.0487     9.9990 </r>
       <r>    -8.9844     0.0085     9.9999 </r>
       <r>    -8.8770     0.0006    10.0000 </r>
       <r>    -8.7697     0.0000    10.0000 </r>
       <r>    -8.6624     0.0000    10.0000 </r>
       <r>    -8.5551     0.0000    10.0000 </r>
       <r>    -8.4478     0.0000    10.0000 </r>
       <r>    -8.3404     0.0000    10.0000 </r>
       <r>    -8.2331     0.0000    10.0000 </r>
       <r>    -8.1258     0.0000    10.0000 </r>
       <r>    -8.0185     0.0000    10.0000 </r>
       <r>    -7.9112     0.0000    10.0000 </r>
       <r>    -7.8038     0.0000    10.0000 </r>
       <r>    -7.6965     0.0000    10.0000 </r>
       <r>    -7.5892     0.0000    10.0000 </r>
       <r>    -7.4819     0.0000    10.0000 </r>
       <r>    -7.3746     0.0001    10.0000 </r>
       <r>    -7.2672     0.0021    10.0002 </r>
       <r>    -7.1599     0.0213    10.0025 </r>
       <r>    -7.0526     0.0642    10.0094 </r>
       <r>    -6.9453    -0.1969     9.9883 </r>
       <r>    -6.8380    -0.8141     9.9009 </r>
       <r>    -6.7306     2.0337    10.1192 </r>
       <r>    -6.6233     8.9489    11.0796 </r>
       <r>    -6.5160     8.3642    11.9772 </r>
       <r>    -6.4087     0.3588    12.0157 </r>
       <r>    -6.3014    -2.7783    11.7176 </r>
       <r>    -6.1940    10.0366    12.7947 </r>
       <r>    -6.0867    28.1069    15.8111 </r>
       <r>    -5.9794    18.5663    17.8037 </r>
       <r>    -5.8721     9.1064    18.7810 </r>
       <r>    -5.7648    33.4793    22.3740 </r>
       <r>    -5.6574    88.2544    31.8455 </r>
       <r>    -5.5501   196.3205    52.9147 </r>
       <r>    -5.4428   298.1446    84.9117 </r>
       <r>    -5.3355   278.2155   114.7699 </r>
       <r>    -5.2281   209.8536   137.2915 </r>
       <r>    -5.1208   236.7588   162.7006 </r>
       <r>    -5.0135   337.7042   198.9431 </r>
       <r>    -4.9062   366.4205   238.2675 </r>
       <r>    -4.7989   302.7023   270.7537 </r>
       <r>    -4.6915   316.6457   304.7362 </r>
       <r>    -4.5842   404.1301   348.1076 </r>
       <r>    -4.4769   420.8725   393.2758 </r>
       <r>    -4.3696   447.6690   441.3199 </r>
       <r>    -4.2623   546.7615   499.9986 </r>
       <r>    -4.1549   494.3440   553.0518 </r>
       <r>    -4.0476   228.0808   577.5295 </r>
       <r>    -3.9403    35.9508   581.3878 </r>
       <r>    -3.8330    20.0457   583.5391 </r>
       <r>    -3.7257    30.9466   586.8603 </r>
       <r>    -3.6183    12.0097   588.1492 </r>
       <r>    -3.5110    12.5153   589.4923 </r>
       <r>    -3.4037    24.8573   592.1600 </r>
       <r>    -3.2964    13.7300   593.6335 </r>
       <r>    -3.1891    -0.0796   593.6250 </r>
       <r>    -3.0817    26.0319   596.4187 </r>
       <r>    -2.9744    64.2679   603.3160 </r>
       <r>    -2.8671    49.3255   608.6096 </r>
       <r>    -2.7598    12.4804   609.9490 </r>
       <r>    -2.6525     5.2175   610.5090 </r>
       <r>    -2.5451    20.9401   612.7563 </r>
       <r>    -2.4378    23.5365   615.2822 </r>
       <r>    -2.3305     8.6991   616.2158 </r>
       <r>    -2.2232    10.6190   617.3554 </r>
       <r>    -2.1159    30.2979   620.6070 </r>
       <r>    -2.0085    42.8403   625.2046 </r>
       <r>    -1.9012    43.9720   629.9237 </r>
       <r>    -1.7939    39.8380   634.1992 </r>
       <r>    -1.6866    37.6623   638.2411 </r>
       <r>    -1.5793    39.8227   642.5149 </r>
       <r>    -1.4719    37.6354   646.5539 </r>
       <r>    -1.3646    24.6771   649.2023 </r>
       <r>    -1.2573     6.1834   649.8659 </r>
       <r>    -1.1500     4.8519   650.3866 </r>
       <r>    -1.0427    35.1214   654.1559 </r>
       <r>    -0.9353    70.0843   661.6773 </r>
       <r>    -0.8280    59.6213   668.0759 </r>
       <r>    -0.7207    19.8315   670.2042 </r>
       <r>    -0.6134     5.1339   670.7552 </r>
       <r>    -0.5060     8.1781   671.6329 </r>
       <r>    -0.3987     4.0970   672.0726 </r>
       <r>    -0.2914    -0.3971   672.0300 </r>
       <r>    -0.1841    -0.3731   671.9899 </r>
       <r>    -0.0768     0.0534   671.9957 </r>
       <r>     0.0306     0.0354   671.9995 </r>
       <r>     0.1379     0.0047   672.0000 </r>
       <r>     0.2452     0.0003   672.0000 </r>
       <r>     0.3525     0.0000   672.0000 </r>
       <r>     0.4598     0.0000   672.0000 </r>
       <r>     0.5672     0.0000   672.0000 </r>
       <r>     0.6745     0.0000   672.0000 </r>
       <r>     0.7818     0.0000   672.0000 </r>
       <r>     0.8891     0.0000   672.0000 </r>
       <r>     0.9964     0.0000   672.0000 </r>
       <r>     1.1038     0.0000   672.0000 </r>
       <r>     1.2111     0.0000   672.0000 </r>
       <r>     1.3184     0.0000   672.0000 </r>
       <r>     1.4257     0.0000   672.0000 </r>
      </set>
     </set>
    </array>
   </total>
  </dos>
 </calculation>
 <structure name="finalpos" >
  <crystal>
   <varray name="basis" >
    <v>      30.00000000       0.00000000       0.00000000 </v>
    <v>       0.00000000      30.00000000       0.00000000 </v>
    <v>       0.00000000       0.00000000      30.00000000 </v>
   </varray>
   <i name="volume">  27000.00000000 </i>
   <varray name="rec_basis" >
    <v>       0.03333333       0.00000000       0.00000000 </v>
    <v>       0.00000000       0.03333333       0.00000000 </v>
    <v>       0.00000000       0.00000000       0.03333333 </v>
   </varray>
  </crystal>
  <varray name="positions" >
   <v>       0.44576020       0.32826710       0.41691983 </v>
   <v>       0.67173288       0.55423978       0.41691983 </v>
   <v>       0.55423980       0.32826710       0.41691983 </v>
   <v>       0.32826712       0.55423978       0.41691983 </v>
   <v>       0.50000000       0.38250690       0.34021317 </v>
   <v>       0.50000000       0.38250690       0.65978680 </v>
   <v>       0.50000000       0.27609440       0.50000000 </v>
   <v>       0.27609443       0.49999998       0.50000000 </v>
   <v>       0.72390557       0.49999998       0.50000000 </v>
   <v>       0.50000000       0.72390555       0.50000000 </v>
   <v>       0.61195280       0.38804720       0.34167483 </v>
   <v>       0.61195280       0.38804720       0.65832513 </v>
   <v>       0.38804722       0.61195278       0.34167483 </v>
   <v>       0.38804722       0.61195278       0.65832513 </v>
   <v>       0.38804720       0.38804720       0.34167483 </v>
   <v>       0.38804720       0.38804720       0.65832513 </v>
   <v>       0.61195278       0.61195278       0.34167483 </v>
   <v>       0.61195278       0.61195278       0.65832513 </v>
   <v>       0.44576020       0.32826710       0.58308023 </v>
   <v>       0.67173288       0.55423978       0.58308023 </v>
   <v>       0.55791699       0.44208301       0.41809300 </v>
   <v>       0.32826705       0.44576024       0.41691983 </v>
   <v>       0.55423973       0.67173293       0.41691983 </v>
   <v>       0.55423980       0.32826710       0.58308023 </v>
   <v>       0.32826712       0.55423978       0.58308023 </v>
   <v>       0.67173295       0.44576024       0.41691983 </v>
   <v>       0.44576027       0.67173293       0.41691983 </v>
   <v>       0.44208301       0.44208301       0.41809300 </v>
   <v>       0.50000000       0.38416601       0.50000000 </v>
   <v>       0.61749315       0.50000005       0.34021317 </v>
   <v>       0.61749315       0.50000005       0.65978680 </v>
   <v>       0.38250685       0.50000005       0.34021317 </v>
   <v>       0.38250685       0.50000005       0.65978680 </v>
   <v>       0.38317830       0.38317830       0.50000000 </v>
   <v>       0.61682172       0.61682172       0.50000000 </v>
   <v>       0.61682170       0.38317830       0.50000000 </v>
   <v>       0.38317828       0.61682172       0.50000000 </v>
   <v>       0.50000000       0.50000000       0.33478917 </v>
   <v>       0.50000000       0.50000000       0.66521087 </v>
   <v>       0.32826705       0.44576024       0.58308023 </v>
   <v>       0.55423973       0.67173293       0.58308023 </v>
   <v>       0.55791699       0.44208301       0.58190703 </v>
   <v>       0.44208298       0.55791702       0.41809300 </v>
   <v>       0.44208301       0.44208301       0.58190703 </v>
   <v>       0.67173295       0.44576024       0.58308023 </v>
   <v>       0.44576027       0.67173293       0.58308023 </v>
   <v>       0.55791702       0.55791702       0.41809300 </v>
   <v>       0.38416599       0.50000002       0.50000000 </v>
   <v>       0.61583401       0.50000002       0.50000000 </v>
   <v>       0.50000000       0.61749319       0.34021317 </v>
   <v>       0.50000000       0.61749319       0.65978680 </v>
   <v>       0.50000000       0.50000000       0.50000000 </v>
   <v>       0.44208298       0.55791702       0.58190703 </v>
   <v>       0.55791702       0.55791702       0.58190703 </v>
   <v>       0.50000000       0.61583404       0.50000000 </v>
   <v>       0.46075590       0.54451370       0.71692080 </v>
   <v>       0.45419460       0.55195603       0.75318813 </v>
  </varray>
  <varray name="selective"  type="logical" >
   <v type="logical" >  F  F  F </v>
   <v type="logical" >  F  F  F </v>
   <v type="logical" >  F  F  F </v>
   <v type="logical" >  F  F  F </v>
   <v type="logical" >  F  F  F </v>
   <v type="logical" >  F  F  F </v>
   <v type="logical" >  F  F  F </v>
   <v type="logical" >  F  F  F </v>
   <v type="logical" >  F  F  F </v>
   <v type="logical" >  F  F  F </v>
   <v type="logical" >  F  F  F </v>
   <v type="logical" >  F  F  F </v>
   <v type="logical" >  F  F  F </v>
   <v type="logical" >  F  F  F </v>
   <v type="logical" >  F  F  F </v>
   <v type="logical" >  F  F  F </v>
   <v type="logical" >  F  F  F </v>
   <v type="logical" >  F  F  F </v>
   <v type="logical" >  F  F  F </v>
   <v type="logical" >  F  F  F </v>
   <v type="logical" >  F  F  F </v>
   <v type="logical" >  F  F  F </v>
   <v type="logical" >  F  F  F </v>
   <v type="logical" >  F  F  F </v>
   <v type="logical" >  F  F  F </v>
   <v type="logical" >  F  F  F </v>
   <v type="logical" >  F  F  F </v>
   <v type="logical" >  F  F  F </v>
   <v type="logical" >  F  F  F </v>
   <v type="logical" >  F  F  F </v>
   <v type="logical" >  F  F  F </v>
   <v type="logical" >  F  F  F </v>
   <v type="logical" >  F  F  F </v>
   <v type="logical" >  F  F  F </v>
   <v type="logical" >  F  F  F </v>
   <v type="logical" >  F  F  F </v>
   <v type="logical" >  F  F  F </v>
   <v type="logical" >  F  F  F </v>
   <v type="logical" >  F  F  F </v>
   <v type="logical" >  F  F  F </v>
   <v type="logical" >  F  F  F </v>
   <v type="logical" >  F  F  F </v>
   <v type="logical" >  F  F  F </v>
   <v type="logical" >  F  F  F </v>
   <v type="logical" >  F  F  F </v>
   <v type="logical" >  F  F  F </v>
   <v type="logical" >  F  F  F </v>
   <v type="logical" >  F  F  F </v>
   <v type="logical" >  F  F  F </v>
   <v type="logical" >  F  F  F </v>
   <v type="logical" >  F  F  F </v>
   <v type="logical" >  F  F  F </v>
   <v type="logical" >  F  F  F </v>
   <v type="logical" >  F  F  F </v>
   <v type="logical" >  F  F  F </v>
   <v type="logical" >  F  F  F </v>
   <v type="logical" >  F  F  F </v>
  </varray>
  <nose>
   <v>      -3.00000000       0.00000000       0.00010000       0.00010000 </v>
  </nose>
 </structure>
</modeling>
