<?xml version="1.0" encoding="ISO-8859-1"?>
<modeling>
 <generator>
  <i name="program" type="string">vasp </i>
  <i name="version" type="string">5.4.4.18Apr17-6-g9f103f2a35  </i>
  <i name="subversion" type="string">(build Sep 03 2018 23:53:05) complex            parallel </i>
  <i name="platform" type="string">LinuxIFC </i>
  <i name="date" type="string">2021 11 27 </i>
  <i name="time" type="string">07:51:45 </i>
 </generator>
 <incar>
  <i type="string" name="SYSTEM"> 6_Pd100_top_free_z(O)</i>
  <i type="int" name="ISTART">     0</i>
  <i type="string" name="PREC">normal   			! encut=max(enmax), ngx,y,z</i>
  <i type="string" name="ALGO"> Fast     			! Mix RMM-DIIS and Dav</i>
  <i type="logical" name="ADDGRID"> F  </i>
  <i type="int" name="ISPIN">     1</i>
  <i type="int" name="ICHARG">     2</i>
  <i type="int" name="NELM">   100</i>
  <i type="int" name="NELMIN">     6</i>
  <i type="int" name="IBRION">     2</i>
  <i name="EDIFF">      0.00010000</i>
  <i name="EDIFFG">     -0.05000000</i>
  <i type="int" name="NSW">     0</i>
  <i type="int" name="ISIF">     2</i>
  <i type="int" name="ISYM">     2</i>
  <i name="ENCUT">    400.00000000</i>
  <i type="string" name="LREAL"> Auto     			! Auto or A projection done</i>
  <i type="int" name="ISMEAR">     2</i>
  <i name="SIGMA">      0.20000000</i>
  <i type="logical" name="LWAVE"> F  </i>
  <i type="logical" name="LCHARG"> F  </i>
  <v type="int" name="KPOINT_BSE">    -1     0     0     0</v>
  <i type="int" name="MAXMEM"> 10000</i>
  <i type="int" name="NELM">   100</i>
  <i type="string" name="GGA"> RP         			! Revised PBE</i>
 </incar>
 <structure name="primitive_cell" >
  <crystal>
   <varray name="basis" >
    <v>      30.00000000       0.00000000       0.00000000 </v>
    <v>       0.00000000      30.00000000       0.00000000 </v>
    <v>       0.00000000       0.00000000      30.00000000 </v>
   </varray>
   <i name="volume">  27000.00000000 </i>
   <varray name="rec_basis" >
    <v>       0.03333333       0.00000000       0.00000000 </v>
    <v>       0.00000000       0.03333333       0.00000000 </v>
    <v>       0.00000000       0.00000000       0.03333333 </v>
   </varray>
  </crystal>
  <varray name="positions" >
   <v>       0.44576020       0.32826710       0.41691983 </v>
   <v>      -0.44576020       0.32826710       0.41691983 </v>
   <v>      -0.50000000       0.38250690       0.34021317 </v>
   <v>      -0.50000000       0.27609440      -0.50000000 </v>
   <v>       0.38804720       0.38804720       0.34167483 </v>
   <v>      -0.50000000       0.38416601      -0.50000000 </v>
   <v>       0.44208300       0.44208300       0.41809300 </v>
   <v>       0.38317830       0.38317830      -0.50000000 </v>
   <v>      -0.44208300       0.44208300       0.41809300 </v>
   <v>       0.44576020       0.32826710      -0.41691977 </v>
   <v>       0.32826705       0.44576024       0.41691983 </v>
   <v>      -0.38804720       0.38804720       0.34167483 </v>
   <v>      -0.38317830       0.38317830      -0.50000000 </v>
   <v>      -0.50000000      -0.50000000       0.33478917 </v>
   <v>      -0.50000000      -0.50000000      -0.50000000 </v>
   <v>      -0.44576020       0.32826710      -0.41691977 </v>
   <v>       0.38250685      -0.49999995       0.34021317 </v>
   <v>       0.44208300       0.44208300      -0.41809297 </v>
   <v>       0.38416599      -0.49999998      -0.50000000 </v>
   <v>       0.45311940       0.37823463      -0.38101103 </v>
   <v>       0.44313730       0.35230757      -0.35567517 </v>
   <v>      -0.44208300       0.44208300      -0.41809297 </v>
   <v>       0.44208298      -0.44208298       0.41809300 </v>
   <v>       0.32826705       0.44576024      -0.41691977 </v>
   <v>      -0.50000000       0.38250690      -0.34021320 </v>
   <v>       0.32826712      -0.44576022       0.41691983 </v>
   <v>      -0.38250685      -0.49999995       0.34021317 </v>
   <v>      -0.32826705       0.44576024       0.41691983 </v>
   <v>       0.27609443       0.49999998      -0.50000000 </v>
   <v>       0.38804720       0.38804720      -0.34167487 </v>
   <v>      -0.38416599      -0.49999998      -0.50000000 </v>
   <v>      -0.44208298      -0.44208298       0.41809300 </v>
   <v>       0.44208298      -0.44208298      -0.41809297 </v>
   <v>      -0.38804720       0.38804720      -0.34167487 </v>
   <v>       0.38804722      -0.38804722       0.34167483 </v>
   <v>       0.38250685      -0.49999995      -0.34021320 </v>
   <v>       0.32826712      -0.44576022      -0.41691977 </v>
   <v>      -0.32826705       0.44576024      -0.41691977 </v>
   <v>       0.50000000      -0.38250681       0.34021317 </v>
   <v>      -0.50000000      -0.38416596      -0.50000000 </v>
   <v>      -0.44208298      -0.44208298      -0.41809297 </v>
   <v>      -0.50000000      -0.50000000      -0.33478913 </v>
   <v>       0.38317828      -0.38317828      -0.50000000 </v>
   <v>      -0.32826712      -0.44576022       0.41691983 </v>
   <v>      -0.27609443       0.49999998      -0.50000000 </v>
   <v>      -0.38804722      -0.38804722       0.34167483 </v>
   <v>      -0.38250685      -0.49999995      -0.34021320 </v>
   <v>       0.44576027      -0.32826707       0.41691983 </v>
   <v>      -0.38317828      -0.38317828      -0.50000000 </v>
   <v>      -0.32826712      -0.44576022      -0.41691977 </v>
   <v>      -0.44576027      -0.32826707       0.41691983 </v>
   <v>       0.38804722      -0.38804722      -0.34167487 </v>
   <v>      -0.50000000      -0.38250681      -0.34021320 </v>
   <v>       0.44576027      -0.32826707      -0.41691977 </v>
   <v>      -0.44576027      -0.32826707      -0.41691977 </v>
   <v>      -0.50000000      -0.27609445       0.50000000 </v>
   <v>      -0.38804722      -0.38804722      -0.34167487 </v>
  </varray>
 </structure>
 <varray name="primitive_index" >
  <v type="int" >        1 </v>
  <v type="int" >        3 </v>
  <v type="int" >        5 </v>
  <v type="int" >        7 </v>
  <v type="int" >       15 </v>
  <v type="int" >       29 </v>
  <v type="int" >       28 </v>
  <v type="int" >       34 </v>
  <v type="int" >       21 </v>
  <v type="int" >       19 </v>
  <v type="int" >       22 </v>
  <v type="int" >       11 </v>
  <v type="int" >       36 </v>
  <v type="int" >       38 </v>
  <v type="int" >       52 </v>
  <v type="int" >       24 </v>
  <v type="int" >       32 </v>
  <v type="int" >       44 </v>
  <v type="int" >       48 </v>
  <v type="int" >       56 </v>
  <v type="int" >       57 </v>
  <v type="int" >       42 </v>
  <v type="int" >       43 </v>
  <v type="int" >       40 </v>
  <v type="int" >        6 </v>
  <v type="int" >        4 </v>
  <v type="int" >       30 </v>
  <v type="int" >       26 </v>
  <v type="int" >        8 </v>
  <v type="int" >       16 </v>
  <v type="int" >       49 </v>
  <v type="int" >       47 </v>
  <v type="int" >       53 </v>
  <v type="int" >       12 </v>
  <v type="int" >       13 </v>
  <v type="int" >       33 </v>
  <v type="int" >       25 </v>
  <v type="int" >       45 </v>
  <v type="int" >       50 </v>
  <v type="int" >       55 </v>
  <v type="int" >       54 </v>
  <v type="int" >       39 </v>
  <v type="int" >       37 </v>
  <v type="int" >        2 </v>
  <v type="int" >        9 </v>
  <v type="int" >       17 </v>
  <v type="int" >       31 </v>
  <v type="int" >       27 </v>
  <v type="int" >       35 </v>
  <v type="int" >       20 </v>
  <v type="int" >       23 </v>
  <v type="int" >       14 </v>
  <v type="int" >       51 </v>
  <v type="int" >       46 </v>
  <v type="int" >       41 </v>
  <v type="int" >       10 </v>
  <v type="int" >       18 </v>
 </varray>
 <kpoints>
  <generation param="Monkhorst-Pack">
   <v type="int" name="divisions">       1        1        1 </v>
   <v name="usershift">      0.00000000       0.00000000       0.00000000 </v>
   <v name="genvec1">      1.00000000       0.00000000       0.00000000 </v>
   <v name="genvec2">      0.00000000       1.00000000       0.00000000 </v>
   <v name="genvec3">      0.00000000       0.00000000       1.00000000 </v>
   <v name="shift">      0.00000000       0.00000000       0.00000000 </v>
  </generation>
  <varray name="kpointlist" >
   <v>       0.00000000       0.00000000       0.00000000 </v>
  </varray>
  <varray name="weights" >
   <v>       1.00000000 </v>
  </varray>
 </kpoints>
 <parameters>
  <separator name="general" >
   <i type="string" name="SYSTEM">6_Pd100_top_free_z(O)</i>
   <i type="logical" name="LCOMPAT"> F  </i>
  </separator>
  <separator name="electronic" >
   <i type="string" name="PREC">normal</i>
   <i name="ENMAX">    400.00000000</i>
   <i name="ENAUG">    644.87300000</i>
   <i name="EDIFF">      0.00010000</i>
   <i type="int" name="IALGO">    68</i>
   <i type="int" name="IWAVPR">    10</i>
   <i type="int" name="NBANDS">   336</i>
   <i name="NELECT">    560.00000000</i>
   <i type="int" name="TURBO">     0</i>
   <i type="int" name="IRESTART">     0</i>
   <i type="int" name="NREBOOT">     0</i>
   <i type="int" name="NMIN">     0</i>
   <i name="EREF">      0.00000000</i>
   <separator name="electronic smearing" >
    <i type="int" name="ISMEAR">     2</i>
    <i name="SIGMA">      0.20000000</i>
    <i name="KSPACING">      0.50000000</i>
    <i type="logical" name="KGAMMA"> T  </i>
   </separator>
   <separator name="electronic projectors" >
    <i type="logical" name="LREAL"> T  </i>
    <v name="ROPT">     -0.00050000     -0.00050000     -0.00050000</v>
    <i type="int" name="LMAXPAW">  -100</i>
    <i type="int" name="LMAXMIX">     2</i>
    <i type="logical" name="NLSPLINE"> F  </i>
   </separator>
   <separator name="electronic startup" >
    <i type="int" name="ISTART">     0</i>
    <i type="int" name="ICHARG">     2</i>
    <i type="int" name="INIWAV">     1</i>
   </separator>
   <separator name="electronic spin" >
    <i type="int" name="ISPIN">     1</i>
    <i type="logical" name="LNONCOLLINEAR"> F  </i>
    <v name="MAGMOM">      1.00000000      1.00000000      1.00000000      1.00000000      1.00000000      1.00000000      1.00000000      1.00000000      1.00000000      1.00000000      1.00000000      1.00000000      1.00000000      1.00000000      1.00000000      1.00000000      1.00000000      1.00000000      1.00000000      1.00000000
      1.00000000      1.00000000      1.00000000      1.00000000      1.00000000      1.00000000      1.00000000      1.00000000      1.00000000      1.00000000      1.00000000      1.00000000      1.00000000      1.00000000      1.00000000      1.00000000      1.00000000      1.00000000      1.00000000      1.00000000
      1.00000000      1.00000000      1.00000000      1.00000000      1.00000000      1.00000000      1.00000000      1.00000000      1.00000000      1.00000000      1.00000000      1.00000000      1.00000000      1.00000000      1.00000000      1.00000000      1.00000000</v>
    <i name="NUPDOWN">     -1.00000000</i>
    <i type="logical" name="LSORBIT"> F  </i>
    <v name="SAXIS">      0.00000000      0.00000000      1.00000000</v>
    <i type="logical" name="LSPIRAL"> F  </i>
    <v name="QSPIRAL">      0.00000000      0.00000000      0.00000000</v>
    <i type="logical" name="LZEROZ"> F  </i>
   </separator>
   <separator name="electronic exchange-correlation" >
    <i type="logical" name="LASPH"> F  </i>
    <i type="logical" name="LMETAGGA"> F  </i>
   </separator>
   <separator name="electronic convergence" >
    <i type="int" name="NELM">   100</i>
    <i type="int" name="NELMDL">    -5</i>
    <i type="int" name="NELMIN">     6</i>
    <i name="ENINI">    400.00000000</i>
    <separator name="electronic convergence detail" >
     <i type="logical" name="LDIAG"> T  </i>
     <i type="logical" name="LSUBROT"> F  </i>
     <i name="WEIMIN">      0.00000000</i>
     <i name="EBREAK">      0.00000007</i>
     <i name="DEPER">      0.30000000</i>
     <i type="int" name="NRMM">     4</i>
     <i name="TIME">      0.40000000</i>
    </separator>
   </separator>
   <separator name="electronic mixer" >
    <i name="AMIX">      0.40000000</i>
    <i name="BMIX">      1.00000000</i>
    <i name="AMIN">      0.10000000</i>
    <i name="AMIX_MAG">      1.60000000</i>
    <i name="BMIX_MAG">      1.00000000</i>
    <separator name="electronic mixer details" >
     <i type="int" name="IMIX">     4</i>
     <i type="logical" name="MIXFIRST"> F  </i>
     <i type="int" name="MAXMIX">   -45</i>
     <i name="WC">    100.00000000</i>
     <i type="int" name="INIMIX">     1</i>
     <i type="int" name="MIXPRE">     1</i>
     <i type="int" name="MREMOVE">     5</i>
    </separator>
   </separator>
   <separator name="electronic dipolcorrection" >
    <i type="logical" name="LDIPOL"> F  </i>
    <i type="logical" name="LMONO"> F  </i>
    <i type="int" name="IDIPOL">     0</i>
    <i name="EPSILON">      1.00000000</i>
    <v name="DIPOL">   -100.00000000   -100.00000000   -100.00000000</v>
    <i name="EFIELD">      0.00000000</i>
   </separator>
  </separator>
  <separator name="grids" >
   <i type="int" name="NGX">   150</i>
   <i type="int" name="NGY">   150</i>
   <i type="int" name="NGZ">   150</i>
   <i type="int" name="NGXF">   300</i>
   <i type="int" name="NGYF">   300</i>
   <i type="int" name="NGZF">   300</i>
   <i type="logical" name="ADDGRID"> F  </i>
  </separator>
  <separator name="ionic" >
   <i type="int" name="NSW">     0</i>
   <i type="int" name="IBRION">    -1</i>
   <i type="int" name="MDALGO">     0</i>
   <i type="int" name="ISIF">     2</i>
   <i name="PSTRESS">      0.00000000</i>
   <i name="EDIFFG">     -0.05000000</i>
   <i type="int" name="NFREE">     1</i>
   <i name="POTIM">      0.50000000</i>
   <i name="SMASS">     -3.00000000</i>
   <i name="SCALEE">      1.00000000</i>
  </separator>
  <separator name="ionic md" >
   <i name="TEBEG">      0.00010000</i>
   <i name="TEEND">      0.00010000</i>
   <i type="int" name="NBLOCK">     1</i>
   <i type="int" name="KBLOCK">     1</i>
   <i type="int" name="NPACO">   256</i>
   <i name="APACO">     16.00000000</i>
  </separator>
  <separator name="symmetry" >
   <i type="int" name="ISYM">     2</i>
   <i name="SYMPREC">      0.00001000</i>
  </separator>
  <separator name="dos" >
   <i type="int" name="LORBIT">     0</i>
   <v name="RWIGS">     -1.00000000     -1.00000000     -1.00000000</v>
   <i type="int" name="NEDOS">   301</i>
   <i name="EMIN">     10.00000000</i>
   <i name="EMAX">    -10.00000000</i>
   <i name="EFERMI">      0.00000000</i>
  </separator>
  <separator name="writing" >
   <i type="int" name="NWRITE">     2</i>
   <i type="logical" name="LWAVE"> F  </i>
   <i type="logical" name="LDOWNSAMPLE"> F  </i>
   <i type="logical" name="LCHARG"> F  </i>
   <i type="logical" name="LPARD"> F  </i>
   <i type="logical" name="LVTOT"> F  </i>
   <i type="logical" name="LVHAR"> F  </i>
   <i type="logical" name="LELF"> F  </i>
   <i type="logical" name="LOPTICS"> F  </i>
   <v name="STM">      0.00000000      0.00000000      0.00000000      0.00000000      0.00000000      0.00000000      0.00000000</v>
  </separator>
  <separator name="performance" >
   <i type="int" name="NPAR">     1</i>
   <i type="int" name="NSIM">     4</i>
   <i type="int" name="NBLK">    -1</i>
   <i type="logical" name="LPLANE"> T  </i>
   <i type="logical" name="LSCALAPACK"> T  </i>
   <i type="logical" name="LSCAAWARE"> F  </i>
   <i type="logical" name="LSCALU"> F  </i>
   <i type="logical" name="LASYNC"> F  </i>
   <i type="logical" name="LORBITALREAL"> F  </i>
  </separator>
  <separator name="miscellaneous" >
   <i type="int" name="IDIOT">     3</i>
   <i type="int" name="ISPECIAL">     0</i>
   <i type="logical" name="LMUSIC"> F  </i>
   <v name="POMASS">    106.42000000     12.01100000     16.00000000</v>
   <v name="DARWINR">      0.00000000      0.00000000      0.00000000</v>
   <v name="DARWINV">      1.00000000      1.00000000      1.00000000</v>
   <i type="logical" name="LCORR"> T  </i>
  </separator>
  <i type="logical" name="GGA_COMPAT"> T  </i>
  <i type="logical" name="LBERRY"> F  </i>
  <i type="int" name="ICORELEVEL">     0</i>
  <i type="logical" name="LDAU"> F  </i>
  <i type="int" name="I_CONSTRAINED_M">     0</i>
  <separator name="electronic exchange-correlation" >
   <i type="string" name="GGA">RP</i>
   <i type="int" name="VOSKOWN">     0</i>
   <i type="logical" name="LHFCALC"> F  </i>
   <i type="string" name="PRECFOCK"></i>
   <i type="logical" name="LSYMGRAD"> F  </i>
   <i type="logical" name="LHFONE"> F  </i>
   <i type="logical" name="LRHFCALC"> F  </i>
   <i type="logical" name="LTHOMAS"> F  </i>
   <i type="logical" name="LMODELHF"> F  </i>
   <i name="ENCUT4O">     -1.00000000</i>
   <i type="int" name="EXXOEP">     0</i>
   <i type="int" name="FOURORBIT">     0</i>
   <i name="AEXX">      0.00000000</i>
   <i name="HFALPHA">      0.00000000</i>
   <i name="MCALPHA">      0.00000000</i>
   <i name="ALDAX">      1.00000000</i>
   <i name="AGGAX">      1.00000000</i>
   <i name="ALDAC">      1.00000000</i>
   <i name="AGGAC">      1.00000000</i>
   <i type="int" name="NKREDX">     1</i>
   <i type="int" name="NKREDY">     1</i>
   <i type="int" name="NKREDZ">     1</i>
   <i type="logical" name="SHIFTRED"> F  </i>
   <i type="logical" name="ODDONLY"> F  </i>
   <i type="logical" name="EVENONLY"> F  </i>
   <i type="int" name="LMAXFOCK">     0</i>
   <i type="int" name="NMAXFOCKAE">     0</i>
   <i type="logical" name="LFOCKAEDFT"> F  </i>
   <i name="HFSCREEN">      0.00000000</i>
   <i name="HFSCREENC">      0.00000000</i>
   <i type="int" name="NBANDSGWLOW">     0</i>
  </separator>
  <separator name="vdW DFT" >
   <i type="logical" name="LUSE_VDW"> F  </i>
   <i name="Zab_VDW">     -0.84910000</i>
   <i name="PARAM1">      0.12340000</i>
   <i name="PARAM2">      1.00000000</i>
   <i name="PARAM3">      0.00000000</i>
  </separator>
  <separator name="model GW" >
   <i type="int" name="MODEL_GW">     0</i>
   <i name="MODEL_EPS0">    284.21052632</i>
   <i name="MODEL_ALPHA">      1.00000000</i>
  </separator>
  <separator name="linear response parameters" >
   <i type="logical" name="LEPSILON"> F  </i>
   <i type="logical" name="LRPA"> F  </i>
   <i type="logical" name="LNABLA"> F  </i>
   <i type="logical" name="LVEL"> F  </i>
   <i type="int" name="KINTER">     0</i>
   <i name="CSHIFT">      0.10000000</i>
   <i name="OMEGAMAX">     -1.00000000</i>
   <i name="DEG_THRESHOLD">      0.00200000</i>
   <i name="RTIME">     -0.10000000</i>
   <i name="WPLASMAI">      0.00000000</i>
   <v name="DFIELD">      0.00000000      0.00000000      0.00000000</v>
   <v name="WPLASMA">      0.00000000      0.00000000      0.00000000      0.00000000      0.00000000      0.00000000      0.00000000      0.00000000      0.00000000</v>
  </separator>
  <separator name="orbital magnetization" >
   <i type="logical" name="NUCIND"> F  </i>
   <v name="MAGPOS">      0.00000000      0.00000000      0.00000000</v>
   <i type="logical" name="LNICSALL"> T  </i>
   <i type="logical" name="ORBITALMAG"> F  </i>
   <i type="logical" name="LMAGBLOCH"> F  </i>
   <i type="logical" name="LCHIMAG"> F  </i>
   <i type="logical" name="LGAUGE"> T  </i>
   <i type="int" name="MAGATOM">     0</i>
   <v name="MAGDIPOL">      0.00000000      0.00000000      0.00000000</v>
   <v name="AVECCONST">      0.00000000      0.00000000      0.00000000</v>
  </separator>
  <separator name="response functions" >
   <i type="logical" name="LADDER"> F  </i>
   <i type="logical" name="LRPAFORCE"> F  </i>
   <i type="logical" name="LFXC"> F  </i>
   <i type="logical" name="LHARTREE"> T  </i>
   <i type="int" name="IBSE">     0</i>
   <v type="int" name="KPOINT">    -1     0     0     0</v>
   <i type="logical" name="LTCTE"> F  </i>
   <i type="logical" name="LTETE"> F  </i>
   <i type="logical" name="LTRIPLET"> F  </i>
   <i type="logical" name="LFXCEPS"> F  </i>
   <i type="logical" name="LFXHEG"> F  </i>
   <i type="int" name="NATURALO">     2</i>
   <i type="logical" name="L2ORDER"> F  </i>
   <i type="logical" name="LMP2LT"> F  </i>
   <i type="logical" name="LUSEW"> F  </i>
   <i name="ENCUTGW">     -2.00000000</i>
   <i name="ENCUTGWSOFT">     -2.00000000</i>
   <i name="ENCUTLF">     -1.00000000</i>
   <i type="int" name="LMAXMP2">    -1</i>
   <i name="SCISSOR">      0.00000000</i>
   <i type="int" name="NOMEGA">     0</i>
   <i type="int" name="NOMEGAR">     0</i>
   <i type="int" name="NBANDSGW">    -1</i>
   <i type="int" name="NBANDSO">    -1</i>
   <i type="int" name="NBANDSV">    -1</i>
   <i type="int" name="NELM">   100</i>
   <i type="int" name="NELMHF">     1</i>
   <i type="int" name="DIM">     3</i>
   <i type="int" name="ANTIRES">     0</i>
   <i name="OMEGAMAX">    -30.00000000</i>
   <i name="OMEGAMIN">    -30.00000000</i>
   <i name="OMEGATL">   -200.00000000</i>
   <i type="int" name="OMEGAGRID">   140</i>
   <i name="CSHIFT">     -0.10000000</i>
   <i type="logical" name="SELFENERGY"> F  </i>
   <i type="logical" name="LSPECTRAL"> F  </i>
   <i type="logical" name="LSPECTRALGW"> F  </i>
   <i type="logical" name="LSINGLES"> F  </i>
   <i type="logical" name="LFERMIGW"> F  </i>
   <i type="logical" name="ODDONLYGW"> F  </i>
   <i type="logical" name="EVENONLYGW"> F  </i>
   <i type="int" name="NKREDLFX">     1</i>
   <i type="int" name="NKREDLFY">     1</i>
   <i type="int" name="NKREDLFZ">     1</i>
   <i type="int" name="MAXMEM"> 10000</i>
   <i type="int" name="TELESCOPE">     0</i>
   <i type="int" name="TAUPAR">     1</i>
   <i type="int" name="OMEGAPAR">    -1</i>
   <i name="LAMBDA">      1.00000000</i>
  </separator>
  <separator name="External order field" >
   <i name="OFIELD_KAPPA">      0.00000000</i>
   <v name="OFIELD_K">      0.00000000      0.00000000      0.00000000</v>
   <i name="OFIELD_Q6_NEAR">      0.00000000</i>
   <i name="OFIELD_Q6_FAR">      0.00000000</i>
   <i name="OFIELD_A">      0.00000000</i>
  </separator>
 </parameters>
 <atominfo>
  <atoms>      57 </atoms>
  <types>       3 </types>
  <array name="atoms" >
   <dimension dim="1">ion</dimension>
   <field type="string">element</field>
   <field type="int">atomtype</field>
   <set>
    <rc><c>Pd</c><c>   1</c></rc>
    <rc><c>Pd</c><c>   1</c></rc>
    <rc><c>Pd</c><c>   1</c></rc>
    <rc><c>Pd</c><c>   1</c></rc>
    <rc><c>Pd</c><c>   1</c></rc>
    <rc><c>Pd</c><c>   1</c></rc>
    <rc><c>Pd</c><c>   1</c></rc>
    <rc><c>Pd</c><c>   1</c></rc>
    <rc><c>Pd</c><c>   1</c></rc>
    <rc><c>Pd</c><c>   1</c></rc>
    <rc><c>Pd</c><c>   1</c></rc>
    <rc><c>Pd</c><c>   1</c></rc>
    <rc><c>Pd</c><c>   1</c></rc>
    <rc><c>Pd</c><c>   1</c></rc>
    <rc><c>Pd</c><c>   1</c></rc>
    <rc><c>Pd</c><c>   1</c></rc>
    <rc><c>Pd</c><c>   1</c></rc>
    <rc><c>Pd</c><c>   1</c></rc>
    <rc><c>Pd</c><c>   1</c></rc>
    <rc><c>Pd</c><c>   1</c></rc>
    <rc><c>Pd</c><c>   1</c></rc>
    <rc><c>Pd</c><c>   1</c></rc>
    <rc><c>Pd</c><c>   1</c></rc>
    <rc><c>Pd</c><c>   1</c></rc>
    <rc><c>Pd</c><c>   1</c></rc>
    <rc><c>Pd</c><c>   1</c></rc>
    <rc><c>Pd</c><c>   1</c></rc>
    <rc><c>Pd</c><c>   1</c></rc>
    <rc><c>Pd</c><c>   1</c></rc>
    <rc><c>Pd</c><c>   1</c></rc>
    <rc><c>Pd</c><c>   1</c></rc>
    <rc><c>Pd</c><c>   1</c></rc>
    <rc><c>Pd</c><c>   1</c></rc>
    <rc><c>Pd</c><c>   1</c></rc>
    <rc><c>Pd</c><c>   1</c></rc>
    <rc><c>Pd</c><c>   1</c></rc>
    <rc><c>Pd</c><c>   1</c></rc>
    <rc><c>Pd</c><c>   1</c></rc>
    <rc><c>Pd</c><c>   1</c></rc>
    <rc><c>Pd</c><c>   1</c></rc>
    <rc><c>Pd</c><c>   1</c></rc>
    <rc><c>Pd</c><c>   1</c></rc>
    <rc><c>Pd</c><c>   1</c></rc>
    <rc><c>Pd</c><c>   1</c></rc>
    <rc><c>Pd</c><c>   1</c></rc>
    <rc><c>Pd</c><c>   1</c></rc>
    <rc><c>Pd</c><c>   1</c></rc>
    <rc><c>Pd</c><c>   1</c></rc>
    <rc><c>Pd</c><c>   1</c></rc>
    <rc><c>Pd</c><c>   1</c></rc>
    <rc><c>Pd</c><c>   1</c></rc>
    <rc><c>Pd</c><c>   1</c></rc>
    <rc><c>Pd</c><c>   1</c></rc>
    <rc><c>Pd</c><c>   1</c></rc>
    <rc><c>Pd</c><c>   1</c></rc>
    <rc><c>C </c><c>   2</c></rc>
    <rc><c>O </c><c>   3</c></rc>
   </set>
  </array>
  <array name="atomtypes" >
   <dimension dim="1">type</dimension>
   <field type="int">atomspertype</field>
   <field type="string">element</field>
   <field>mass</field>
   <field>valence</field>
   <field type="string">pseudopotential</field>
   <set>
    <rc><c>  55</c><c>Pd</c><c>    106.42000000</c><c>     10.00000000</c><c>  PAW_PBE Pd 04Jan2005                  </c></rc>
    <rc><c>   1</c><c>C </c><c>     12.01100000</c><c>      4.00000000</c><c>  PAW_PBE C 08Apr2002                   </c></rc>
    <rc><c>   1</c><c>O </c><c>     16.00000000</c><c>      6.00000000</c><c>  PAW_PBE O 08Apr2002                   </c></rc>
   </set>
  </array>
 </atominfo>
 <structure name="initialpos" >
  <crystal>
   <varray name="basis" >
    <v>      30.00000000       0.00000000       0.00000000 </v>
    <v>       0.00000000      30.00000000       0.00000000 </v>
    <v>       0.00000000       0.00000000      30.00000000 </v>
   </varray>
   <i name="volume">  27000.00000000 </i>
   <varray name="rec_basis" >
    <v>       0.03333333       0.00000000       0.00000000 </v>
    <v>       0.00000000       0.03333333       0.00000000 </v>
    <v>       0.00000000       0.00000000       0.03333333 </v>
   </varray>
  </crystal>
  <varray name="positions" >
   <v>       0.44576020       0.32826710       0.41691983 </v>
   <v>       0.67173288       0.55423978       0.41691983 </v>
   <v>       0.55423980       0.32826710       0.41691983 </v>
   <v>       0.32826712       0.55423978       0.41691983 </v>
   <v>       0.50000000       0.38250690       0.34021317 </v>
   <v>       0.50000000       0.38250690       0.65978680 </v>
   <v>       0.50000000       0.27609440       0.50000000 </v>
   <v>       0.27609443       0.49999998       0.50000000 </v>
   <v>       0.72390557       0.49999998       0.50000000 </v>
   <v>       0.50000000       0.72390555       0.50000000 </v>
   <v>       0.61195280       0.38804720       0.34167483 </v>
   <v>       0.61195280       0.38804720       0.65832513 </v>
   <v>       0.38804722       0.61195278       0.34167483 </v>
   <v>       0.38804722       0.61195278       0.65832513 </v>
   <v>       0.38804720       0.38804720       0.34167483 </v>
   <v>       0.38804720       0.38804720       0.65832513 </v>
   <v>       0.61195278       0.61195278       0.34167483 </v>
   <v>       0.61195278       0.61195278       0.65832513 </v>
   <v>       0.44576020       0.32826710       0.58308023 </v>
   <v>       0.67173288       0.55423978       0.58308023 </v>
   <v>       0.55791699       0.44208301       0.41809300 </v>
   <v>       0.32826705       0.44576024       0.41691983 </v>
   <v>       0.55423973       0.67173293       0.41691983 </v>
   <v>       0.55423980       0.32826710       0.58308023 </v>
   <v>       0.32826712       0.55423978       0.58308023 </v>
   <v>       0.67173295       0.44576024       0.41691983 </v>
   <v>       0.44576027       0.67173293       0.41691983 </v>
   <v>       0.44208301       0.44208301       0.41809300 </v>
   <v>       0.50000000       0.38416601       0.50000000 </v>
   <v>       0.61749315       0.50000005       0.34021317 </v>
   <v>       0.61749315       0.50000005       0.65978680 </v>
   <v>       0.38250685       0.50000005       0.34021317 </v>
   <v>       0.38250685       0.50000005       0.65978680 </v>
   <v>       0.38317830       0.38317830       0.50000000 </v>
   <v>       0.61682172       0.61682172       0.50000000 </v>
   <v>       0.61682170       0.38317830       0.50000000 </v>
   <v>       0.38317828       0.61682172       0.50000000 </v>
   <v>       0.50000000       0.50000000       0.33478917 </v>
   <v>       0.50000000       0.50000000       0.66521087 </v>
   <v>       0.32826705       0.44576024       0.58308023 </v>
   <v>       0.55423973       0.67173293       0.58308023 </v>
   <v>       0.55791699       0.44208301       0.58190703 </v>
   <v>       0.44208298       0.55791702       0.41809300 </v>
   <v>       0.44208301       0.44208301       0.58190703 </v>
   <v>       0.67173295       0.44576024       0.58308023 </v>
   <v>       0.44576027       0.67173293       0.58308023 </v>
   <v>       0.55791702       0.55791702       0.41809300 </v>
   <v>       0.38416599       0.50000002       0.50000000 </v>
   <v>       0.61583401       0.50000002       0.50000000 </v>
   <v>       0.50000000       0.61749319       0.34021317 </v>
   <v>       0.50000000       0.61749319       0.65978680 </v>
   <v>       0.50000000       0.50000000       0.50000000 </v>
   <v>       0.44208298       0.55791702       0.58190703 </v>
   <v>       0.55791702       0.55791702       0.58190703 </v>
   <v>       0.50000000       0.61583404       0.50000000 </v>
   <v>       0.45311940       0.37823463       0.61898897 </v>
   <v>       0.44313730       0.35230757       0.64432483 </v>
  </varray>
  <varray name="selective"  type="logical" >
   <v type="logical" >  F  F  F </v>
   <v type="logical" >  F  F  F </v>
   <v type="logical" >  F  F  F </v>
   <v type="logical" >  F  F  F </v>
   <v type="logical" >  F  F  F </v>
   <v type="logical" >  F  F  F </v>
   <v type="logical" >  F  F  F </v>
   <v type="logical" >  F  F  F </v>
   <v type="logical" >  F  F  F </v>
   <v type="logical" >  F  F  F </v>
   <v type="logical" >  F  F  F </v>
   <v type="logical" >  F  F  F </v>
   <v type="logical" >  F  F  F </v>
   <v type="logical" >  F  F  F </v>
   <v type="logical" >  F  F  F </v>
   <v type="logical" >  F  F  F </v>
   <v type="logical" >  F  F  F </v>
   <v type="logical" >  F  F  F </v>
   <v type="logical" >  F  F  F </v>
   <v type="logical" >  F  F  F </v>
   <v type="logical" >  F  F  F </v>
   <v type="logical" >  F  F  F </v>
   <v type="logical" >  F  F  F </v>
   <v type="logical" >  F  F  F </v>
   <v type="logical" >  F  F  F </v>
   <v type="logical" >  F  F  F </v>
   <v type="logical" >  F  F  F </v>
   <v type="logical" >  F  F  F </v>
   <v type="logical" >  F  F  F </v>
   <v type="logical" >  F  F  F </v>
   <v type="logical" >  F  F  F </v>
   <v type="logical" >  F  F  F </v>
   <v type="logical" >  F  F  F </v>
   <v type="logical" >  F  F  F </v>
   <v type="logical" >  F  F  F </v>
   <v type="logical" >  F  F  F </v>
   <v type="logical" >  F  F  F </v>
   <v type="logical" >  F  F  F </v>
   <v type="logical" >  F  F  F </v>
   <v type="logical" >  F  F  F </v>
   <v type="logical" >  F  F  F </v>
   <v type="logical" >  F  F  F </v>
   <v type="logical" >  F  F  F </v>
   <v type="logical" >  F  F  F </v>
   <v type="logical" >  F  F  F </v>
   <v type="logical" >  F  F  F </v>
   <v type="logical" >  F  F  F </v>
   <v type="logical" >  F  F  F </v>
   <v type="logical" >  F  F  F </v>
   <v type="logical" >  F  F  F </v>
   <v type="logical" >  F  F  F </v>
   <v type="logical" >  F  F  F </v>
   <v type="logical" >  F  F  F </v>
   <v type="logical" >  F  F  F </v>
   <v type="logical" >  F  F  F </v>
   <v type="logical" >  F  F  F </v>
   <v type="logical" >  F  F  F </v>
  </varray>
  <nose>
   <v>      -3.00000000       0.00000000       0.00010000       0.00010000 </v>
  </nose>
 </structure>
 <calculation>
  <scstep>
   <time name="dav">  368.78  368.84</time>
   <time name="total">  383.58  383.65</time>
   <energy>
    <i name="alphaZ">     75.25431677 </i>
    <i name="ewald"> 140956.56160549 </i>
    <i name="hartreedc">-184281.44918889 </i>
    <i name="XCdc">  -1699.07741568 </i>
    <i name="pawpsdc">  44873.02882129 </i>
    <i name="pawaedc"> -41398.84523641 </i>
    <i name="eentropy">      0.03149004 </i>
    <i name="bandstr">    806.03368332 </i>
    <i name="atom">  45086.50549395 </i>
    <i name="e_fr_energy">   4418.04356988 </i>
    <i name="e_wo_entrp">   4418.01207984 </i>
    <i name="e_0_energy">   4418.03569737 </i>
   </energy>
  </scstep>
  <scstep>
   <time name="dav">  590.37  590.38</time>
   <time name="total">  590.37  590.38</time>
   <energy>
    <i name="e_fr_energy">   2016.31969631 </i>
    <i name="e_wo_entrp">   2016.32963927 </i>
    <i name="e_0_energy">   2016.32218205 </i>
   </energy>
  </scstep>
  <scstep>
   <time name="dav">  496.74  496.76</time>
   <time name="total">  496.74  496.76</time>
   <energy>
    <i name="e_fr_energy">    235.49596469 </i>
    <i name="e_wo_entrp">    235.50389936 </i>
    <i name="e_0_energy">    235.49794836 </i>
   </energy>
  </scstep>
  <scstep>
   <time name="dav">  430.02  430.05</time>
   <time name="total">  430.03  430.05</time>
   <energy>
    <i name="e_fr_energy">   -132.64305743 </i>
    <i name="e_wo_entrp">   -132.69689172 </i>
    <i name="e_0_energy">   -132.65651600 </i>
   </energy>
  </scstep>
  <scstep>
   <time name="dav">  522.25  522.25</time>
   <time name="total">  548.40  548.41</time>
   <energy>
    <i name="e_fr_energy">   -178.62845983 </i>
    <i name="e_wo_entrp">   -179.08600783 </i>
    <i name="e_0_energy">   -178.74284683 </i>
   </energy>
  </scstep>
  <scstep>
   <time name="diag">   69.59   69.59</time>
   <time name="diis">  195.70  195.71</time>
   <time name="orth">   13.61   13.61</time>
   <time name="total">  318.41  318.43</time>
   <energy>
    <i name="e_fr_energy">   -181.63882667 </i>
    <i name="e_wo_entrp">   -181.51531990 </i>
    <i name="e_0_energy">   -181.60794998 </i>
   </energy>
  </scstep>
  <scstep>
   <time name="diag">   69.88   69.89</time>
   <time name="diis">  224.34  224.35</time>
   <time name="orth">   13.68   13.68</time>
   <time name="total">  348.38  348.40</time>
   <energy>
    <i name="e_fr_energy">   -184.07146384 </i>
    <i name="e_wo_entrp">   -184.02062737 </i>
    <i name="e_0_energy">   -184.05875473 </i>
   </energy>
  </scstep>
  <scstep>
   <time name="diag">   69.76   69.76</time>
   <time name="diis">  209.07  209.09</time>
   <time name="orth">   13.93   13.93</time>
   <time name="total">  333.82  333.86</time>
   <energy>
    <i name="e_fr_energy">   -183.64982032 </i>
    <i name="e_wo_entrp">   -183.45977773 </i>
    <i name="e_0_energy">   -183.60230967 </i>
   </energy>
  </scstep>
  <scstep>
   <time name="diag">   68.22   68.22</time>
   <time name="diis">  190.63  190.65</time>
   <time name="orth">   13.80   13.80</time>
   <time name="total">  313.15  313.16</time>
   <energy>
    <i name="e_fr_energy">   -182.96516410 </i>
    <i name="e_wo_entrp">   -182.87442993 </i>
    <i name="e_0_energy">   -182.94248056 </i>
   </energy>
  </scstep>
  <scstep>
   <time name="diag">   68.43   68.43</time>
   <time name="diis">  193.78  193.78</time>
   <time name="orth">   13.87   13.87</time>
   <time name="total">  316.66  316.66</time>
   <energy>
    <i name="e_fr_energy">   -182.08330308 </i>
    <i name="e_wo_entrp">   -182.00180037 </i>
    <i name="e_0_energy">   -182.06292740 </i>
   </energy>
  </scstep>
  <scstep>
   <time name="diag">   69.27   69.27</time>
   <time name="diis">  191.00  191.01</time>
   <time name="orth">   13.97   13.97</time>
   <time name="total">  314.92  314.95</time>
   <energy>
    <i name="e_fr_energy">   -180.57555037 </i>
    <i name="e_wo_entrp">   -180.57237563 </i>
    <i name="e_0_energy">   -180.57475669 </i>
   </energy>
  </scstep>
  <scstep>
   <time name="diag">   68.72   68.72</time>
   <time name="diis">  191.67  191.69</time>
   <time name="orth">   14.04   14.04</time>
   <time name="total">  314.94  314.98</time>
   <energy>
    <i name="e_fr_energy">   -181.90929870 </i>
    <i name="e_wo_entrp">   -181.91459343 </i>
    <i name="e_0_energy">   -181.91062238 </i>
   </energy>
  </scstep>
  <scstep>
   <time name="diag">   68.15   68.16</time>
   <time name="diis">  195.23  195.23</time>
   <time name="orth">   13.83   13.83</time>
   <time name="total">  317.20  317.22</time>
   <energy>
    <i name="e_fr_energy">   -179.95149881 </i>
    <i name="e_wo_entrp">   -180.18814657 </i>
    <i name="e_0_energy">   -180.01066075 </i>
   </energy>
  </scstep>
  <scstep>
   <time name="diag">   68.62   68.62</time>
   <time name="diis">  185.26  185.26</time>
   <time name="orth">   13.65   13.65</time>
   <time name="total">  307.89  307.90</time>
   <energy>
    <i name="e_fr_energy">   -178.68906762 </i>
    <i name="e_wo_entrp">   -178.96824486 </i>
    <i name="e_0_energy">   -178.75886193 </i>
   </energy>
  </scstep>
  <scstep>
   <time name="diag">   68.36   68.36</time>
   <time name="diis">  188.11  188.12</time>
   <time name="orth">   13.40   13.40</time>
   <time name="total">  309.81  309.83</time>
   <energy>
    <i name="e_fr_energy">   -175.46285725 </i>
    <i name="e_wo_entrp">   -175.52853469 </i>
    <i name="e_0_energy">   -175.47927661 </i>
   </energy>
  </scstep>
  <scstep>
   <time name="diag">   69.10   69.11</time>
   <time name="diis">  186.55  186.55</time>
   <time name="orth">   13.73   13.73</time>
   <time name="total">  309.23  309.24</time>
   <energy>
    <i name="e_fr_energy">   -174.51150200 </i>
    <i name="e_wo_entrp">   -174.47083898 </i>
    <i name="e_0_energy">   -174.50133624 </i>
   </energy>
  </scstep>
  <scstep>
   <time name="diag">   68.96   68.96</time>
   <time name="diis">  183.90  183.90</time>
   <time name="orth">   13.76   13.76</time>
   <time name="total">  307.15  307.16</time>
   <energy>
    <i name="e_fr_energy">   -174.27095899 </i>
    <i name="e_wo_entrp">   -174.21863171 </i>
    <i name="e_0_energy">   -174.25787717 </i>
   </energy>
  </scstep>
  <scstep>
   <time name="diag">   69.43   69.43</time>
   <time name="diis">  182.58  182.61</time>
   <time name="orth">   13.76   13.76</time>
   <time name="total">  306.43  306.46</time>
   <energy>
    <i name="e_fr_energy">   -174.54803679 </i>
    <i name="e_wo_entrp">   -174.54916279 </i>
    <i name="e_0_energy">   -174.54831829 </i>
   </energy>
  </scstep>
  <scstep>
   <time name="diag">   68.08   68.09</time>
   <time name="diis">  182.01  182.04</time>
   <time name="orth">   13.78   13.78</time>
   <time name="total">  304.52  304.56</time>
   <energy>
    <i name="e_fr_energy">   -173.76700950 </i>
    <i name="e_wo_entrp">   -173.82289253 </i>
    <i name="e_0_energy">   -173.78098026 </i>
   </energy>
  </scstep>
  <scstep>
   <time name="diag">   67.85   67.85</time>
   <time name="diis">  181.99  181.99</time>
   <time name="orth">   13.46   13.46</time>
   <time name="total">  303.07  303.08</time>
   <energy>
    <i name="e_fr_energy">   -173.51249512 </i>
    <i name="e_wo_entrp">   -173.49281432 </i>
    <i name="e_0_energy">   -173.50757492 </i>
   </energy>
  </scstep>
  <scstep>
   <time name="diag">   68.22   68.22</time>
   <time name="diis">  181.68  181.69</time>
   <time name="orth">   13.63   13.63</time>
   <time name="total">  303.95  303.98</time>
   <energy>
    <i name="e_fr_energy">   -173.29364425 </i>
    <i name="e_wo_entrp">   -173.28058736 </i>
    <i name="e_0_energy">   -173.29038002 </i>
   </energy>
  </scstep>
  <scstep>
   <time name="diag">   68.40   68.41</time>
   <time name="diis">  181.30  181.30</time>
   <time name="orth">   13.68   13.68</time>
   <time name="total">  303.81  303.83</time>
   <energy>
    <i name="e_fr_energy">   -172.97110586 </i>
    <i name="e_wo_entrp">   -172.96822997 </i>
    <i name="e_0_energy">   -172.97038689 </i>
   </energy>
  </scstep>
  <scstep>
   <time name="diag">   68.03   68.03</time>
   <time name="diis">  181.38  181.39</time>
   <time name="orth">   13.54   13.54</time>
   <time name="total">  303.51  303.53</time>
   <energy>
    <i name="e_fr_energy">   -172.78344266 </i>
    <i name="e_wo_entrp">   -172.78596606 </i>
    <i name="e_0_energy">   -172.78407351 </i>
   </energy>
  </scstep>
  <scstep>
   <time name="diag">   68.13   68.14</time>
   <time name="diis">  181.03  181.04</time>
   <time name="orth">   13.48   13.48</time>
   <time name="total">  303.10  303.13</time>
   <energy>
    <i name="e_fr_energy">   -172.63530087 </i>
    <i name="e_wo_entrp">   -172.65388730 </i>
    <i name="e_0_energy">   -172.63994748 </i>
   </energy>
  </scstep>
  <scstep>
   <time name="diag">   67.92   67.93</time>
   <time name="diis">  181.65  181.65</time>
   <time name="orth">   13.57   13.57</time>
   <time name="total">  303.68  303.69</time>
   <energy>
    <i name="e_fr_energy">   -172.56193399 </i>
    <i name="e_wo_entrp">   -172.57349832 </i>
    <i name="e_0_energy">   -172.56482507 </i>
   </energy>
  </scstep>
  <scstep>
   <time name="diag">   67.94   67.94</time>
   <time name="diis">  179.55  179.57</time>
   <time name="orth">   13.58   13.58</time>
   <time name="total">  301.62  301.64</time>
   <energy>
    <i name="e_fr_energy">   -172.45591489 </i>
    <i name="e_wo_entrp">   -172.44050307 </i>
    <i name="e_0_energy">   -172.45206194 </i>
   </energy>
  </scstep>
  <scstep>
   <time name="diag">   67.92   67.92</time>
   <time name="diis">  179.03  179.05</time>
   <time name="orth">   13.54   13.54</time>
   <time name="total">  301.10  301.12</time>
   <energy>
    <i name="e_fr_energy">   -172.38790060 </i>
    <i name="e_wo_entrp">   -172.37570739 </i>
    <i name="e_0_energy">   -172.38485230 </i>
   </energy>
  </scstep>
  <scstep>
   <time name="diag">   67.91   67.91</time>
   <time name="diis">  178.77  178.78</time>
   <time name="orth">   13.49   13.49</time>
   <time name="total">  300.67  300.68</time>
   <energy>
    <i name="e_fr_energy">   -172.29695909 </i>
    <i name="e_wo_entrp">   -172.28751779 </i>
    <i name="e_0_energy">   -172.29459877 </i>
   </energy>
  </scstep>
  <scstep>
   <time name="diag">   68.61   68.62</time>
   <time name="diis">  184.19  184.20</time>
   <time name="orth">   13.72   13.72</time>
   <time name="total">  307.23  307.25</time>
   <energy>
    <i name="e_fr_energy">   -172.21357687 </i>
    <i name="e_wo_entrp">   -172.18153592 </i>
    <i name="e_0_energy">   -172.20556663 </i>
   </energy>
  </scstep>
  <scstep>
   <time name="diag">   68.07   68.07</time>
   <time name="diis">  185.26  185.27</time>
   <time name="orth">   13.74   13.75</time>
   <time name="total">  308.35  308.37</time>
   <energy>
    <i name="e_fr_energy">   -172.17680969 </i>
    <i name="e_wo_entrp">   -172.14533673 </i>
    <i name="e_0_energy">   -172.16894145 </i>
   </energy>
  </scstep>
  <scstep>
   <time name="diag">   67.23   67.23</time>
   <time name="diis">  187.65  187.65</time>
   <time name="orth">   13.48   13.48</time>
   <time name="total">  309.62  309.62</time>
   <energy>
    <i name="e_fr_energy">   -172.16723716 </i>
    <i name="e_wo_entrp">   -172.15517190 </i>
    <i name="e_0_energy">   -172.16422084 </i>
   </energy>
  </scstep>
  <scstep>
   <time name="diag">   67.04   67.04</time>
   <time name="diis">  184.70  184.70</time>
   <time name="orth">   13.62   13.62</time>
   <time name="total">  306.35  306.35</time>
   <energy>
    <i name="e_fr_energy">   -172.13295946 </i>
    <i name="e_wo_entrp">   -172.11320747 </i>
    <i name="e_0_energy">   -172.12802146 </i>
   </energy>
  </scstep>
  <scstep>
   <time name="diag">   67.99   67.99</time>
   <time name="diis">  187.33  187.34</time>
   <time name="orth">   13.79   13.79</time>
   <time name="total">  309.81  309.81</time>
   <energy>
    <i name="e_fr_energy">   -172.11277649 </i>
    <i name="e_wo_entrp">   -172.07126099 </i>
    <i name="e_0_energy">   -172.10239762 </i>
   </energy>
  </scstep>
  <scstep>
   <time name="diag">   68.09   68.09</time>
   <time name="diis">  185.98  186.00</time>
   <time name="orth">   14.05   14.05</time>
   <time name="total">  309.76  309.78</time>
   <energy>
    <i name="e_fr_energy">   -172.09695776 </i>
    <i name="e_wo_entrp">   -172.04950064 </i>
    <i name="e_0_energy">   -172.08509348 </i>
   </energy>
  </scstep>
  <scstep>
   <time name="diag">   67.90   67.91</time>
   <time name="diis">  185.03  185.04</time>
   <time name="orth">   14.18   14.18</time>
   <time name="total">  309.48  309.51</time>
   <energy>
    <i name="e_fr_energy">   -172.08977696 </i>
    <i name="e_wo_entrp">   -172.04734358 </i>
    <i name="e_0_energy">   -172.07916862 </i>
   </energy>
  </scstep>
  <scstep>
   <time name="diag">   67.58   67.58</time>
   <time name="diis">  184.58  184.58</time>
   <time name="orth">   13.95   13.95</time>
   <time name="total">  308.43  308.43</time>
   <energy>
    <i name="e_fr_energy">   -172.08070820 </i>
    <i name="e_wo_entrp">   -172.03761714 </i>
    <i name="e_0_energy">   -172.06993544 </i>
   </energy>
  </scstep>
  <scstep>
   <time name="diag">   67.60   67.60</time>
   <time name="diis">  184.61  184.61</time>
   <time name="orth">   13.92   13.92</time>
   <time name="total">  308.58  308.59</time>
   <energy>
    <i name="e_fr_energy">   -172.07721230 </i>
    <i name="e_wo_entrp">   -172.03978099 </i>
    <i name="e_0_energy">   -172.06785447 </i>
   </energy>
  </scstep>
  <scstep>
   <time name="diag">   68.15   68.15</time>
   <time name="diis">  183.84  183.85</time>
   <time name="orth">   13.61   13.61</time>
   <time name="total">  308.96  308.97</time>
   <energy>
    <i name="e_fr_energy">   -172.07690710 </i>
    <i name="e_wo_entrp">   -172.03827164 </i>
    <i name="e_0_energy">   -172.06724824 </i>
   </energy>
  </scstep>
  <scstep>
   <time name="diag">   67.77   67.77</time>
   <time name="diis">  182.16  182.16</time>
   <time name="orth">   13.88   13.88</time>
   <time name="total">  306.28  306.29</time>
   <energy>
    <i name="e_fr_energy">   -172.07439330 </i>
    <i name="e_wo_entrp">   -172.03987242 </i>
    <i name="e_0_energy">   -172.06576308 </i>
   </energy>
  </scstep>
  <scstep>
   <time name="diag">   68.12   68.12</time>
   <time name="diis">  181.35  181.35</time>
   <time name="orth">   13.66   13.66</time>
   <time name="total">  305.87  305.89</time>
   <energy>
    <i name="e_fr_energy">   -172.07482068 </i>
    <i name="e_wo_entrp">   -172.03817682 </i>
    <i name="e_0_energy">   -172.06565972 </i>
   </energy>
  </scstep>
  <scstep>
   <time name="diag">   69.24   69.25</time>
   <time name="diis">  180.89  180.92</time>
   <time name="orth">   14.05   14.05</time>
   <time name="total">  307.46  307.50</time>
   <energy>
    <i name="e_fr_energy">   -172.07720728 </i>
    <i name="e_wo_entrp">   -172.03998158 </i>
    <i name="e_0_energy">   -172.06790086 </i>
   </energy>
  </scstep>
  <scstep>
   <time name="diag">   69.14   69.15</time>
   <time name="diis">  180.42  180.43</time>
   <time name="orth">   13.83   13.83</time>
   <time name="total">  306.67  306.69</time>
   <energy>
    <i name="e_fr_energy">   -172.07652799 </i>
    <i name="e_wo_entrp">   -172.03743093 </i>
    <i name="e_0_energy">   -172.06675373 </i>
   </energy>
  </scstep>
  <scstep>
   <time name="diag">   68.64   68.64</time>
   <time name="diis">  179.96  179.96</time>
   <time name="orth">   13.57   13.57</time>
   <time name="total">  306.05  306.06</time>
   <energy>
    <i name="e_fr_energy">   -172.07804888 </i>
    <i name="e_wo_entrp">   -172.04066391 </i>
    <i name="e_0_energy">   -172.06870264 </i>
   </energy>
  </scstep>
  <scstep>
   <time name="diag">   67.90   67.90</time>
   <time name="diis">  177.94  177.94</time>
   <time name="orth">   13.72   13.71</time>
   <time name="total">  302.68  302.68</time>
   <energy>
    <i name="e_fr_energy">   -172.07953931 </i>
    <i name="e_wo_entrp">   -172.04151399 </i>
    <i name="e_0_energy">   -172.07003298 </i>
   </energy>
  </scstep>
  <scstep>
   <time name="diag">   68.41   68.41</time>
   <time name="diis">  175.44  175.45</time>
   <time name="orth">   13.67   13.67</time>
   <time name="total">  301.40  301.42</time>
   <energy>
    <i name="e_fr_energy">   -172.08097876 </i>
    <i name="e_wo_entrp">   -172.04398457 </i>
    <i name="e_0_energy">   -172.07173021 </i>
   </energy>
  </scstep>
  <scstep>
   <time name="diag">   69.43   69.43</time>
   <time name="diis">  154.58  154.58</time>
   <time name="orth">   13.83   13.83</time>
   <time name="total">  282.21  282.22</time>
   <energy>
    <i name="e_fr_energy">   -172.08252392 </i>
    <i name="e_wo_entrp">   -172.04643148 </i>
    <i name="e_0_energy">   -172.07350081 </i>
   </energy>
  </scstep>
  <scstep>
   <time name="diag">   70.22   70.25</time>
   <time name="diis">  123.36  123.37</time>
   <time name="orth">   13.37   13.37</time>
   <time name="total">  250.46  250.51</time>
   <energy>
    <i name="e_fr_energy">   -172.08428237 </i>
    <i name="e_wo_entrp">   -172.04752175 </i>
    <i name="e_0_energy">   -172.07509221 </i>
   </energy>
  </scstep>
  <scstep>
   <time name="diag">   69.39   69.39</time>
   <time name="diis">  115.13  115.14</time>
   <time name="orth">   13.36   13.36</time>
   <time name="total">  241.04  241.07</time>
   <energy>
    <i name="e_fr_energy">   -172.08611473 </i>
    <i name="e_wo_entrp">   -172.04903794 </i>
    <i name="e_0_energy">   -172.07684553 </i>
   </energy>
  </scstep>
  <scstep>
   <time name="diag">   68.49   68.50</time>
   <time name="diis">  117.05  117.06</time>
   <time name="orth">   14.22   14.23</time>
   <time name="total">  242.89  242.92</time>
   <energy>
    <i name="e_fr_energy">   -172.08731191 </i>
    <i name="e_wo_entrp">   -172.05030621 </i>
    <i name="e_0_energy">   -172.07806048 </i>
   </energy>
  </scstep>
  <scstep>
   <time name="diag">   67.32   67.32</time>
   <time name="diis">  116.10  116.11</time>
   <time name="orth">   13.66   13.66</time>
   <time name="total">  240.22  240.23</time>
   <energy>
    <i name="e_fr_energy">   -172.08911527 </i>
    <i name="e_wo_entrp">   -172.05204388 </i>
    <i name="e_0_energy">   -172.07984742 </i>
   </energy>
  </scstep>
  <scstep>
   <time name="diag">   67.82   67.82</time>
   <time name="diis">  114.94  114.94</time>
   <time name="orth">   13.96   13.96</time>
   <time name="total">  240.19  240.20</time>
   <energy>
    <i name="e_fr_energy">   -172.09003743 </i>
    <i name="e_wo_entrp">   -172.05227153 </i>
    <i name="e_0_energy">   -172.08059595 </i>
   </energy>
  </scstep>
  <scstep>
   <time name="diag">   69.07   69.08</time>
   <time name="diis">  113.89  113.89</time>
   <time name="orth">   13.36   13.36</time>
   <time name="total">  238.91  238.91</time>
   <energy>
    <i name="e_fr_energy">   -172.09210087 </i>
    <i name="e_wo_entrp">   -172.05381629 </i>
    <i name="e_0_energy">   -172.08252973 </i>
   </energy>
  </scstep>
  <scstep>
   <time name="diag">   69.34   69.34</time>
   <time name="diis">  115.38  115.40</time>
   <time name="orth">   13.21   13.21</time>
   <time name="total">  240.45  240.47</time>
   <energy>
    <i name="e_fr_energy">   -172.09341291 </i>
    <i name="e_wo_entrp">   -172.05653198 </i>
    <i name="e_0_energy">   -172.08419267 </i>
   </energy>
  </scstep>
  <scstep>
   <time name="diag">   67.84   67.84</time>
   <time name="diis">  121.15  121.15</time>
   <time name="orth">   13.58   13.58</time>
   <time name="total">  246.12  246.13</time>
   <energy>
    <i name="e_fr_energy">   -172.09485948 </i>
    <i name="e_wo_entrp">   -172.05789928 </i>
    <i name="e_0_energy">   -172.08561943 </i>
   </energy>
  </scstep>
  <scstep>
   <time name="diag">   67.53   67.53</time>
   <time name="diis">  114.70  114.70</time>
   <time name="orth">   13.94   13.94</time>
   <time name="total">  240.25  240.25</time>
   <energy>
    <i name="e_fr_energy">   -172.09587582 </i>
    <i name="e_wo_entrp">   -172.05914694 </i>
    <i name="e_0_energy">   -172.08669360 </i>
   </energy>
  </scstep>
  <scstep>
   <time name="diag">   69.07   69.07</time>
   <time name="diis">  113.82  113.82</time>
   <time name="orth">   13.68   13.68</time>
   <time name="total">  240.49  240.49</time>
   <energy>
    <i name="e_fr_energy">   -172.09666627 </i>
    <i name="e_wo_entrp">   -172.05918078 </i>
    <i name="e_0_energy">   -172.08729490 </i>
   </energy>
  </scstep>
  <scstep>
   <time name="diag">   69.69   69.69</time>
   <time name="diis">  115.12  115.12</time>
   <time name="orth">   13.18   13.18</time>
   <time name="total">  240.20  240.20</time>
   <energy>
    <i name="e_fr_energy">   -172.09728936 </i>
    <i name="e_wo_entrp">   -172.05990594 </i>
    <i name="e_0_energy">   -172.08794351 </i>
   </energy>
  </scstep>
  <scstep>
   <time name="diag">   66.92   66.93</time>
   <time name="diis">  111.27  111.27</time>
   <time name="orth">   13.04   13.04</time>
   <time name="total">  232.90  232.90</time>
   <energy>
    <i name="e_fr_energy">   -172.09785456 </i>
    <i name="e_wo_entrp">   -172.06052846 </i>
    <i name="e_0_energy">   -172.08852303 </i>
   </energy>
  </scstep>
  <scstep>
   <time name="diag">   66.18   66.18</time>
   <time name="diis">  108.37  108.37</time>
   <time name="orth">   13.45   13.45</time>
   <time name="total">  230.47  230.48</time>
   <energy>
    <i name="e_fr_energy">   -172.09810667 </i>
    <i name="e_wo_entrp">   -172.06099928 </i>
    <i name="e_0_energy">   -172.08882982 </i>
   </energy>
  </scstep>
  <scstep>
   <time name="diag">   66.44   66.44</time>
   <time name="diis">   96.46   96.46</time>
   <time name="orth">   13.38   13.38</time>
   <time name="total">  218.67  218.67</time>
   <energy>
    <i name="e_fr_energy">   -172.09840175 </i>
    <i name="e_wo_entrp">   -172.06118021 </i>
    <i name="e_0_energy">   -172.08909636 </i>
   </energy>
  </scstep>
  <scstep>
   <time name="diag">   66.99   66.99</time>
   <time name="diis">   86.47   86.48</time>
   <time name="orth">   13.20   13.20</time>
   <time name="total">  180.49  180.50</time>
   <energy>
    <i name="alphaZ">     75.25431677 </i>
    <i name="ewald"> 140956.56160549 </i>
    <i name="hartreedc">-185294.05020342 </i>
    <i name="XCdc">  -1688.55903146 </i>
    <i name="pawpsdc">  46690.89211679 </i>
    <i name="pawaedc"> -43164.49851900 </i>
    <i name="eentropy">     -0.03739320 </i>
    <i name="bandstr">  -2834.16687338 </i>
    <i name="atom">  45086.50549395 </i>
    <i name="e_fr_energy">   -172.09848746 </i>
    <i name="e_wo_entrp">   -172.06109426 </i>
    <i name="e_0_energy">   -172.08913916 </i>
   </energy>
  </scstep>
  <structure>
   <crystal>
    <varray name="basis" >
     <v>      30.00000000       0.00000000       0.00000000 </v>
     <v>       0.00000000      30.00000000       0.00000000 </v>
     <v>       0.00000000       0.00000000      30.00000000 </v>
    </varray>
    <i name="volume">  27000.00000000 </i>
    <varray name="rec_basis" >
     <v>       0.03333333       0.00000000       0.00000000 </v>
     <v>       0.00000000       0.03333333       0.00000000 </v>
     <v>       0.00000000       0.00000000       0.03333333 </v>
    </varray>
   </crystal>
   <varray name="positions" >
    <v>       0.44576020       0.32826710       0.41691983 </v>
    <v>       0.67173288       0.55423978       0.41691983 </v>
    <v>       0.55423980       0.32826710       0.41691983 </v>
    <v>       0.32826712       0.55423978       0.41691983 </v>
    <v>       0.50000000       0.38250690       0.34021317 </v>
    <v>       0.50000000       0.38250690       0.65978680 </v>
    <v>       0.50000000       0.27609440       0.50000000 </v>
    <v>       0.27609443       0.49999998       0.50000000 </v>
    <v>       0.72390557       0.49999998       0.50000000 </v>
    <v>       0.50000000       0.72390555       0.50000000 </v>
    <v>       0.61195280       0.38804720       0.34167483 </v>
    <v>       0.61195280       0.38804720       0.65832513 </v>
    <v>       0.38804722       0.61195278       0.34167483 </v>
    <v>       0.38804722       0.61195278       0.65832513 </v>
    <v>       0.38804720       0.38804720       0.34167483 </v>
    <v>       0.38804720       0.38804720       0.65832513 </v>
    <v>       0.61195278       0.61195278       0.34167483 </v>
    <v>       0.61195278       0.61195278       0.65832513 </v>
    <v>       0.44576020       0.32826710       0.58308023 </v>
    <v>       0.67173288       0.55423978       0.58308023 </v>
    <v>       0.55791699       0.44208301       0.41809300 </v>
    <v>       0.32826705       0.44576024       0.41691983 </v>
    <v>       0.55423973       0.67173293       0.41691983 </v>
    <v>       0.55423980       0.32826710       0.58308023 </v>
    <v>       0.32826712       0.55423978       0.58308023 </v>
    <v>       0.67173295       0.44576024       0.41691983 </v>
    <v>       0.44576027       0.67173293       0.41691983 </v>
    <v>       0.44208301       0.44208301       0.41809300 </v>
    <v>       0.50000000       0.38416601       0.50000000 </v>
    <v>       0.61749315       0.50000005       0.34021317 </v>
    <v>       0.61749315       0.50000005       0.65978680 </v>
    <v>       0.38250685       0.50000005       0.34021317 </v>
    <v>       0.38250685       0.50000005       0.65978680 </v>
    <v>       0.38317830       0.38317830       0.50000000 </v>
    <v>       0.61682172       0.61682172       0.50000000 </v>
    <v>       0.61682170       0.38317830       0.50000000 </v>
    <v>       0.38317828       0.61682172       0.50000000 </v>
    <v>       0.50000000       0.50000000       0.33478917 </v>
    <v>       0.50000000       0.50000000       0.66521087 </v>
    <v>       0.32826705       0.44576024       0.58308023 </v>
    <v>       0.55423973       0.67173293       0.58308023 </v>
    <v>       0.55791699       0.44208301       0.58190703 </v>
    <v>       0.44208298       0.55791702       0.41809300 </v>
    <v>       0.44208301       0.44208301       0.58190703 </v>
    <v>       0.67173295       0.44576024       0.58308023 </v>
    <v>       0.44576027       0.67173293       0.58308023 </v>
    <v>       0.55791702       0.55791702       0.41809300 </v>
    <v>       0.38416599       0.50000002       0.50000000 </v>
    <v>       0.61583401       0.50000002       0.50000000 </v>
    <v>       0.50000000       0.61749319       0.34021317 </v>
    <v>       0.50000000       0.61749319       0.65978680 </v>
    <v>       0.50000000       0.50000000       0.50000000 </v>
    <v>       0.44208298       0.55791702       0.58190703 </v>
    <v>       0.55791702       0.55791702       0.58190703 </v>
    <v>       0.50000000       0.61583404       0.50000000 </v>
    <v>       0.45311940       0.37823463       0.61898897 </v>
    <v>       0.44313730       0.35230757       0.64432483 </v>
   </varray>
  </structure>
  <varray name="forces" >
   <v>       0.70477202       1.10137992       0.29322350 </v>
   <v>      -1.10529124      -0.70253770       0.29230811 </v>
   <v>      -0.70186726       1.11561048       0.29318870 </v>
   <v>       1.09531703      -0.69405513       0.27418592 </v>
   <v>      -0.00226943       0.41224957       1.28259469 </v>
   <v>       5.39894492       2.30973026       1.08940166 </v>
   <v>      -0.01761887       1.51279706      -0.03783226 </v>
   <v>       1.50693463       0.00919690      -0.00467719 </v>
   <v>      -1.51886589       0.00159576       0.00273248 </v>
   <v>       0.00022653      -1.51516071      -0.00208544 </v>
   <v>      -0.75961585       0.75603702       1.07241866 </v>
   <v>      -0.73484882       0.79017247      -1.05789256 </v>
   <v>       0.75724772      -0.75397919       1.07123721 </v>
   <v>       0.75030772      -0.74300119      -1.07169781 </v>
   <v>       0.75626041       0.76241703       1.07342898 </v>
   <v>      -1.85341668       2.04819617      -0.12638021 </v>
   <v>      -0.74658924      -0.76715235       1.07343543 </v>
   <v>      -0.76009777      -0.75389820      -1.07668235 </v>
   <v>       0.78402200      -2.53626665      -5.71301318 </v>
   <v>      -1.10920985      -0.70408666      -0.28887692 </v>
   <v>       0.11425275      -0.10589317      -0.16615683 </v>
   <v>       1.10636510       0.70890402       0.28208702 </v>
   <v>      -0.70868231      -1.10149116       0.29935580 </v>
   <v>      -0.48147450       1.03003994      -0.39276083 </v>
   <v>       1.11314812      -0.73545043      -0.27279230 </v>
   <v>      -1.10993242       0.71037463       0.28876599 </v>
   <v>       0.70398549      -1.10329253       0.28837137 </v>
   <v>      -0.11186130      -0.11306196      -0.15398346 </v>
   <v>       0.03015902      -0.23243894      -0.10463437 </v>
   <v>      -0.41280047      -0.00092867       1.27774367 </v>
   <v>      -0.41031318      -0.00470621      -1.27691091 </v>
   <v>       0.41537464      -0.00910711       1.27957839 </v>
   <v>       0.37422903       0.10372100      -1.27074016 </v>
   <v>       0.78767114       0.83582642      -0.08558617 </v>
   <v>      -0.82567997      -0.82832851      -0.00007075 </v>
   <v>      -0.82500063       0.82726946      -0.00112302 </v>
   <v>       0.83434889      -0.83689648       0.00203162 </v>
   <v>       0.00149001      -0.00117211       1.17567029 </v>
   <v>       0.03610786       0.08307418      -1.15360318 </v>
   <v>       1.02975492       0.76859039      -0.33759464 </v>
   <v>      -0.69711677      -1.11253716      -0.28629950 </v>
   <v>       0.20209852      -0.05492113       0.13834167 </v>
   <v>      -0.10477896       0.10342265      -0.15049201 </v>
   <v>       0.07165615      -0.89962057       0.58227996 </v>
   <v>      -1.11259500       0.70589834      -0.29796616 </v>
   <v>       0.70494116      -1.08399315      -0.28941544 </v>
   <v>       0.11716507       0.11530536      -0.16281882 </v>
   <v>      -0.23096760       0.01136702       0.01458833 </v>
   <v>       0.23403997       0.00843530      -0.00561425 </v>
   <v>      -0.01100912      -0.41315383       1.28054443 </v>
   <v>       0.00365366      -0.40303035      -1.28324445 </v>
   <v>      -0.00007985       0.01843464      -0.01281047 </v>
   <v>      -0.12878267       0.10814782       0.15080536 </v>
   <v>       0.11042481       0.10935047       0.15795985 </v>
   <v>       0.00335796       0.21686254       0.00122177 </v>
   <v>       2.65671801      12.42387470     -10.41234385 </v>
   <v>      -5.92420960     -11.49812026      12.45859863 </v>
  </varray>
  <varray name="stress" >
   <v>      -5.80407891       0.26668874      -0.08194851 </v>
   <v>       0.26668877      -5.88067316      -0.00014532 </v>
   <v>      -0.08194851      -0.00014530      -5.56655563 </v>
  </varray>
  <energy>
   <i name="e_fr_energy">   -172.09848746 </i>
   <i name="e_wo_entrp">   -172.08913916 </i>
   <i name="e_0_energy">     -0.03739320 </i>
  </energy>
  <time name="totalsc">18967.4618968.49</time>
  <eigenvalues>
   <array>
    <dimension dim="1">band</dimension>
    <dimension dim="2">kpoint</dimension>
    <dimension dim="3">spin</dimension>
    <field>eigene</field>
    <field>occ</field>
    <set>
     <set comment="spin 1">
      <set comment="kpoint 1">
       <r>  -30.8113    1.0000 </r>
       <r>  -15.3600    1.0000 </r>
       <r>  -14.2575    1.0000 </r>
       <r>  -13.9908    1.0000 </r>
       <r>  -11.0802    1.0000 </r>
       <r>   -8.0010    1.0000 </r>
       <r>   -7.3396    1.0000 </r>
       <r>   -6.5984    1.0000 </r>
       <r>   -6.3277    1.0000 </r>
       <r>   -6.3108    1.0000 </r>
       <r>   -6.1335    1.0000 </r>
       <r>   -6.0825    1.0000 </r>
       <r>   -6.0621    1.0000 </r>
       <r>   -5.9372    1.0000 </r>
       <r>   -5.9168    1.0000 </r>
       <r>   -5.9040    1.0000 </r>
       <r>   -5.8324    1.0000 </r>
       <r>   -5.7823    1.0000 </r>
       <r>   -5.7662    1.0000 </r>
       <r>   -5.7469    1.0000 </r>
       <r>   -5.7100    1.0000 </r>
       <r>   -5.6561    1.0000 </r>
       <r>   -5.6503    1.0000 </r>
       <r>   -5.6425    1.0000 </r>
       <r>   -5.6299    1.0000 </r>
       <r>   -5.6005    1.0000 </r>
       <r>   -5.5916    1.0000 </r>
       <r>   -5.5689    1.0000 </r>
       <r>   -5.5490    1.0000 </r>
       <r>   -5.5459    1.0000 </r>
       <r>   -5.5376    1.0000 </r>
       <r>   -5.5130    1.0000 </r>
       <r>   -5.5066    1.0000 </r>
       <r>   -5.5033    1.0000 </r>
       <r>   -5.4937    1.0000 </r>
       <r>   -5.4885    1.0000 </r>
       <r>   -5.4865    1.0000 </r>
       <r>   -5.4767    1.0000 </r>
       <r>   -5.4734    1.0000 </r>
       <r>   -5.4677    1.0000 </r>
       <r>   -5.4607    1.0000 </r>
       <r>   -5.4542    1.0000 </r>
       <r>   -5.4526    1.0000 </r>
       <r>   -5.4455    1.0000 </r>
       <r>   -5.4332    1.0000 </r>
       <r>   -5.4313    1.0000 </r>
       <r>   -5.4276    1.0000 </r>
       <r>   -5.4242    1.0000 </r>
       <r>   -5.4184    1.0000 </r>
       <r>   -5.4109    1.0000 </r>
       <r>   -5.4007    1.0000 </r>
       <r>   -5.3898    1.0000 </r>
       <r>   -5.3892    1.0000 </r>
       <r>   -5.3862    1.0000 </r>
       <r>   -5.3695    1.0000 </r>
       <r>   -5.3647    1.0000 </r>
       <r>   -5.3589    1.0000 </r>
       <r>   -5.3550    1.0000 </r>
       <r>   -5.3510    1.0000 </r>
       <r>   -5.3423    1.0000 </r>
       <r>   -5.3391    1.0000 </r>
       <r>   -5.3355    1.0000 </r>
       <r>   -5.3222    1.0000 </r>
       <r>   -5.2903    1.0000 </r>
       <r>   -5.2868    1.0000 </r>
       <r>   -5.2810    1.0000 </r>
       <r>   -5.2752    1.0000 </r>
       <r>   -5.2606    1.0000 </r>
       <r>   -5.2551    1.0000 </r>
       <r>   -5.2520    1.0000 </r>
       <r>   -5.2506    1.0000 </r>
       <r>   -5.2475    1.0000 </r>
       <r>   -5.2267    1.0000 </r>
       <r>   -5.2216    1.0000 </r>
       <r>   -5.1923    1.0000 </r>
       <r>   -5.1816    1.0000 </r>
       <r>   -5.1677    1.0000 </r>
       <r>   -5.1674    1.0000 </r>
       <r>   -5.1510    1.0000 </r>
       <r>   -5.1407    1.0000 </r>
       <r>   -5.1350    1.0000 </r>
       <r>   -5.1305    1.0000 </r>
       <r>   -5.1301    1.0000 </r>
       <r>   -5.1275    1.0000 </r>
       <r>   -5.1240    1.0000 </r>
       <r>   -5.1101    1.0000 </r>
       <r>   -5.0973    1.0000 </r>
       <r>   -5.0823    1.0000 </r>
       <r>   -5.0768    1.0000 </r>
       <r>   -5.0735    1.0000 </r>
       <r>   -5.0674    1.0000 </r>
       <r>   -5.0604    1.0000 </r>
       <r>   -5.0454    1.0000 </r>
       <r>   -5.0376    1.0000 </r>
       <r>   -5.0194    1.0000 </r>
       <r>   -5.0190    1.0000 </r>
       <r>   -5.0165    1.0000 </r>
       <r>   -5.0014    1.0000 </r>
       <r>   -4.9998    1.0000 </r>
       <r>   -4.9959    1.0000 </r>
       <r>   -4.9944    1.0000 </r>
       <r>   -4.9913    1.0000 </r>
       <r>   -4.9874    1.0000 </r>
       <r>   -4.9840    1.0000 </r>
       <r>   -4.9785    1.0000 </r>
       <r>   -4.9690    1.0000 </r>
       <r>   -4.9645    1.0000 </r>
       <r>   -4.9592    1.0000 </r>
       <r>   -4.9586    1.0000 </r>
       <r>   -4.9551    1.0000 </r>
       <r>   -4.9479    1.0000 </r>
       <r>   -4.9403    1.0000 </r>
       <r>   -4.9316    1.0000 </r>
       <r>   -4.9241    1.0000 </r>
       <r>   -4.9215    1.0000 </r>
       <r>   -4.9183    1.0000 </r>
       <r>   -4.9067    1.0000 </r>
       <r>   -4.9050    1.0000 </r>
       <r>   -4.8967    1.0000 </r>
       <r>   -4.8942    1.0000 </r>
       <r>   -4.8897    1.0000 </r>
       <r>   -4.8842    1.0000 </r>
       <r>   -4.8756    1.0000 </r>
       <r>   -4.8736    1.0000 </r>
       <r>   -4.8704    1.0000 </r>
       <r>   -4.8675    1.0000 </r>
       <r>   -4.8604    1.0000 </r>
       <r>   -4.8548    1.0000 </r>
       <r>   -4.8547    1.0000 </r>
       <r>   -4.8443    1.0000 </r>
       <r>   -4.8279    1.0000 </r>
       <r>   -4.8268    1.0000 </r>
       <r>   -4.8108    1.0000 </r>
       <r>   -4.8052    1.0000 </r>
       <r>   -4.7937    1.0000 </r>
       <r>   -4.7918    1.0000 </r>
       <r>   -4.7877    1.0000 </r>
       <r>   -4.7819    1.0000 </r>
       <r>   -4.7806    1.0000 </r>
       <r>   -4.7704    0.9999 </r>
       <r>   -4.7699    0.9999 </r>
       <r>   -4.7600    0.9999 </r>
       <r>   -4.7540    0.9999 </r>
       <r>   -4.7476    0.9999 </r>
       <r>   -4.7413    0.9999 </r>
       <r>   -4.7281    0.9998 </r>
       <r>   -4.7276    0.9998 </r>
       <r>   -4.7070    0.9997 </r>
       <r>   -4.6918    0.9996 </r>
       <r>   -4.6877    0.9996 </r>
       <r>   -4.6847    0.9996 </r>
       <r>   -4.6813    0.9995 </r>
       <r>   -4.6772    0.9995 </r>
       <r>   -4.6674    0.9994 </r>
       <r>   -4.6508    0.9991 </r>
       <r>   -4.6476    0.9991 </r>
       <r>   -4.6412    0.9990 </r>
       <r>   -4.6335    0.9988 </r>
       <r>   -4.6278    0.9987 </r>
       <r>   -4.6256    0.9986 </r>
       <r>   -4.6198    0.9985 </r>
       <r>   -4.6173    0.9984 </r>
       <r>   -4.6145    0.9983 </r>
       <r>   -4.6116    0.9983 </r>
       <r>   -4.6071    0.9981 </r>
       <r>   -4.6033    0.9980 </r>
       <r>   -4.6027    0.9980 </r>
       <r>   -4.5947    0.9977 </r>
       <r>   -4.5907    0.9976 </r>
       <r>   -4.5885    0.9975 </r>
       <r>   -4.5844    0.9974 </r>
       <r>   -4.5816    0.9973 </r>
       <r>   -4.5810    0.9973 </r>
       <r>   -4.5718    0.9969 </r>
       <r>   -4.5656    0.9967 </r>
       <r>   -4.5614    0.9965 </r>
       <r>   -4.5602    0.9965 </r>
       <r>   -4.5479    0.9960 </r>
       <r>   -4.5452    0.9959 </r>
       <r>   -4.5370    0.9957 </r>
       <r>   -4.5368    0.9957 </r>
       <r>   -4.5336    0.9956 </r>
       <r>   -4.5295    0.9954 </r>
       <r>   -4.5272    0.9954 </r>
       <r>   -4.5172    0.9952 </r>
       <r>   -4.5153    0.9951 </r>
       <r>   -4.5083    0.9951 </r>
       <r>   -4.5055    0.9951 </r>
       <r>   -4.5030    0.9951 </r>
       <r>   -4.5002    0.9951 </r>
       <r>   -4.4964    0.9951 </r>
       <r>   -4.4928    0.9952 </r>
       <r>   -4.4846    0.9954 </r>
       <r>   -4.4766    0.9958 </r>
       <r>   -4.4758    0.9959 </r>
       <r>   -4.4641    0.9968 </r>
       <r>   -4.4539    0.9979 </r>
       <r>   -4.4515    0.9983 </r>
       <r>   -4.4489    0.9986 </r>
       <r>   -4.4460    0.9991 </r>
       <r>   -4.4422    0.9997 </r>
       <r>   -4.4374    1.0006 </r>
       <r>   -4.4356    1.0010 </r>
       <r>   -4.4235    1.0038 </r>
       <r>   -4.4135    1.0066 </r>
       <r>   -4.4090    1.0080 </r>
       <r>   -4.4078    1.0084 </r>
       <r>   -4.4075    1.0085 </r>
       <r>   -4.4032    1.0100 </r>
       <r>   -4.3983    1.0117 </r>
       <r>   -4.3930    1.0138 </r>
       <r>   -4.3857    1.0168 </r>
       <r>   -4.3778    1.0202 </r>
       <r>   -4.3777    1.0202 </r>
       <r>   -4.3666    1.0254 </r>
       <r>   -4.3656    1.0258 </r>
       <r>   -4.3592    1.0289 </r>
       <r>   -4.3586    1.0292 </r>
       <r>   -4.3561    1.0304 </r>
       <r>   -4.3557    1.0306 </r>
       <r>   -4.3474    1.0346 </r>
       <r>   -4.3422    1.0370 </r>
       <r>   -4.3253    1.0443 </r>
       <r>   -4.3201    1.0462 </r>
       <r>   -4.3116    1.0488 </r>
       <r>   -4.3085    1.0496 </r>
       <r>   -4.3044    1.0505 </r>
       <r>   -4.2935    1.0516 </r>
       <r>   -4.2897    1.0516 </r>
       <r>   -4.2867    1.0514 </r>
       <r>   -4.2840    1.0510 </r>
       <r>   -4.2822    1.0507 </r>
       <r>   -4.2812    1.0505 </r>
       <r>   -4.2798    1.0502 </r>
       <r>   -4.2796    1.0501 </r>
       <r>   -4.2749    1.0487 </r>
       <r>   -4.2724    1.0478 </r>
       <r>   -4.2709    1.0472 </r>
       <r>   -4.2668    1.0451 </r>
       <r>   -4.2663    1.0449 </r>
       <r>   -4.2614    1.0418 </r>
       <r>   -4.2599    1.0408 </r>
       <r>   -4.2514    1.0335 </r>
       <r>   -4.2492    1.0312 </r>
       <r>   -4.2419    1.0227 </r>
       <r>   -4.2409    1.0214 </r>
       <r>   -4.2392    1.0191 </r>
       <r>   -4.2358    1.0143 </r>
       <r>   -4.2337    1.0111 </r>
       <r>   -4.2280    1.0016 </r>
       <r>   -4.2227    0.9917 </r>
       <r>   -4.2222    0.9907 </r>
       <r>   -4.2150    0.9754 </r>
       <r>   -4.2140    0.9731 </r>
       <r>   -4.2104    0.9647 </r>
       <r>   -4.2053    0.9518 </r>
       <r>   -4.2040    0.9483 </r>
       <r>   -4.2032    0.9461 </r>
       <r>   -4.1995    0.9356 </r>
       <r>   -4.1988    0.9338 </r>
       <r>   -4.1939    0.9193 </r>
       <r>   -4.1937    0.9184 </r>
       <r>   -4.1916    0.9119 </r>
       <r>   -4.1900    0.9068 </r>
       <r>   -4.1872    0.8977 </r>
       <r>   -4.1822    0.8805 </r>
       <r>   -4.1791    0.8697 </r>
       <r>   -4.1758    0.8573 </r>
       <r>   -4.1715    0.8411 </r>
       <r>   -4.1672    0.8238 </r>
       <r>   -4.1637    0.8093 </r>
       <r>   -4.1601    0.7943 </r>
       <r>   -4.1530    0.7631 </r>
       <r>   -4.1510    0.7539 </r>
       <r>   -4.1387    0.6960 </r>
       <r>   -4.1363    0.6844 </r>
       <r>   -4.1321    0.6637 </r>
       <r>   -4.1266    0.6360 </r>
       <r>   -4.1238    0.6216 </r>
       <r>   -4.1223    0.6142 </r>
       <r>   -4.1096    0.5479 </r>
       <r>   -4.0969    0.4805 </r>
       <r>   -4.0930    0.4599 </r>
       <r>   -4.0808    0.3964 </r>
       <r>   -4.0782    0.3832 </r>
       <r>   -4.0734    0.3582 </r>
       <r>   -4.0680    0.3315 </r>
       <r>   -4.0675    0.3290 </r>
       <r>   -3.9472   -0.0358 </r>
       <r>   -3.9123   -0.0515 </r>
       <r>   -3.8027   -0.0117 </r>
       <r>   -3.7864   -0.0062 </r>
       <r>   -3.7680   -0.0015 </r>
       <r>   -3.4894    0.0002 </r>
       <r>   -3.4426    0.0001 </r>
       <r>   -3.4316    0.0001 </r>
       <r>   -3.3235    0.0000 </r>
       <r>   -3.0232    0.0000 </r>
       <r>   -3.0167    0.0000 </r>
       <r>   -2.9856    0.0000 </r>
       <r>   -2.9842    0.0000 </r>
       <r>   -2.9325    0.0000 </r>
       <r>   -2.9022    0.0000 </r>
       <r>   -2.8928    0.0000 </r>
       <r>   -2.6160    0.0000 </r>
       <r>   -2.4935    0.0000 </r>
       <r>   -2.4496    0.0000 </r>
       <r>   -2.3704    0.0000 </r>
       <r>   -2.3063    0.0000 </r>
       <r>   -2.1153    0.0000 </r>
       <r>   -2.0867    0.0000 </r>
       <r>   -1.9740    0.0000 </r>
       <r>   -1.9293    0.0000 </r>
       <r>   -1.8805    0.0000 </r>
       <r>   -1.8545    0.0000 </r>
       <r>   -1.8241    0.0000 </r>
       <r>   -1.7153    0.0000 </r>
       <r>   -1.7037    0.0000 </r>
       <r>   -1.6643    0.0000 </r>
       <r>   -1.6068    0.0000 </r>
       <r>   -1.6004    0.0000 </r>
       <r>   -1.5037    0.0000 </r>
       <r>   -1.3931    0.0000 </r>
       <r>   -1.3141    0.0000 </r>
       <r>   -1.2079    0.0000 </r>
       <r>   -1.1760    0.0000 </r>
       <r>   -1.0854    0.0000 </r>
       <r>   -1.0357    0.0000 </r>
       <r>   -0.9532    0.0000 </r>
       <r>   -0.9469    0.0000 </r>
       <r>   -0.9328    0.0000 </r>
       <r>   -0.8971    0.0000 </r>
       <r>   -0.7815    0.0000 </r>
       <r>   -0.7724    0.0000 </r>
       <r>   -0.7320    0.0000 </r>
       <r>   -0.7112    0.0000 </r>
      </set>
     </set>
    </set>
   </array>
  </eigenvalues>
  <separator name="orbital magnetization" >
   <v name="MAGDIPOLOUT">      0.00000000      0.00000000      0.00000000</v>
  </separator>
  <dos>
   <i name="efermi">     -4.10054872 </i>
   <total>
    <array>
     <dimension dim="1">gridpoints</dimension>
     <dimension dim="2">spin</dimension>
     <field>energy</field>
     <field>total</field>
     <field>integrated</field>
     <set>
      <set comment="spin 1">
       <r>   -32.8113     0.0000     0.0000 </r>
       <r>   -32.6976     0.0000     0.0000 </r>
       <r>   -32.5839     0.0000     0.0000 </r>
       <r>   -32.4703     0.0000     0.0000 </r>
       <r>   -32.3566     0.0000     0.0000 </r>
       <r>   -32.2429     0.0000     0.0000 </r>
       <r>   -32.1293     0.0000     0.0000 </r>
       <r>   -32.0156     0.0000     0.0000 </r>
       <r>   -31.9019     0.0000     0.0000 </r>
       <r>   -31.7883     0.0000     0.0000 </r>
       <r>   -31.6746     0.0000     0.0000 </r>
       <r>   -31.5609     0.0001     0.0000 </r>
       <r>   -31.4473     0.0021     0.0002 </r>
       <r>   -31.3336     0.0232     0.0029 </r>
       <r>   -31.2199     0.0611     0.0098 </r>
       <r>   -31.1063    -0.3117    -0.0256 </r>
       <r>   -30.9926    -0.6659    -0.1013 </r>
       <r>   -30.8789     3.9191     0.3442 </r>
       <r>   -30.7653     9.8800     1.4672 </r>
       <r>   -30.6516     5.4083     2.0820 </r>
       <r>   -30.5379    -0.3346     2.0439 </r>
       <r>   -30.4243    -0.4688     1.9906 </r>
       <r>   -30.3106     0.0462     1.9959 </r>
       <r>   -30.1969     0.0324     1.9996 </r>
       <r>   -30.0833     0.0036     2.0000 </r>
       <r>   -29.9696     0.0002     2.0000 </r>
       <r>   -29.8559     0.0000     2.0000 </r>
       <r>   -29.7423     0.0000     2.0000 </r>
       <r>   -29.6286     0.0000     2.0000 </r>
       <r>   -29.5149     0.0000     2.0000 </r>
       <r>   -29.4013     0.0000     2.0000 </r>
       <r>   -29.2876     0.0000     2.0000 </r>
       <r>   -29.1739     0.0000     2.0000 </r>
       <r>   -29.0603     0.0000     2.0000 </r>
       <r>   -28.9466     0.0000     2.0000 </r>
       <r>   -28.8329     0.0000     2.0000 </r>
       <r>   -28.7193     0.0000     2.0000 </r>
       <r>   -28.6056     0.0000     2.0000 </r>
       <r>   -28.4919     0.0000     2.0000 </r>
       <r>   -28.3783     0.0000     2.0000 </r>
       <r>   -28.2646     0.0000     2.0000 </r>
       <r>   -28.1509     0.0000     2.0000 </r>
       <r>   -28.0373     0.0000     2.0000 </r>
       <r>   -27.9236     0.0000     2.0000 </r>
       <r>   -27.8099     0.0000     2.0000 </r>
       <r>   -27.6963     0.0000     2.0000 </r>
       <r>   -27.5826     0.0000     2.0000 </r>
       <r>   -27.4689     0.0000     2.0000 </r>
       <r>   -27.3553     0.0000     2.0000 </r>
       <r>   -27.2416     0.0000     2.0000 </r>
       <r>   -27.1279     0.0000     2.0000 </r>
       <r>   -27.0143     0.0000     2.0000 </r>
       <r>   -26.9006     0.0000     2.0000 </r>
       <r>   -26.7869     0.0000     2.0000 </r>
       <r>   -26.6733     0.0000     2.0000 </r>
       <r>   -26.5596     0.0000     2.0000 </r>
       <r>   -26.4459     0.0000     2.0000 </r>
       <r>   -26.3323     0.0000     2.0000 </r>
       <r>   -26.2186     0.0000     2.0000 </r>
       <r>   -26.1049     0.0000     2.0000 </r>
       <r>   -25.9913     0.0000     2.0000 </r>
       <r>   -25.8776     0.0000     2.0000 </r>
       <r>   -25.7639     0.0000     2.0000 </r>
       <r>   -25.6503     0.0000     2.0000 </r>
       <r>   -25.5366     0.0000     2.0000 </r>
       <r>   -25.4229     0.0000     2.0000 </r>
       <r>   -25.3093     0.0000     2.0000 </r>
       <r>   -25.1956     0.0000     2.0000 </r>
       <r>   -25.0819     0.0000     2.0000 </r>
       <r>   -24.9683     0.0000     2.0000 </r>
       <r>   -24.8546     0.0000     2.0000 </r>
       <r>   -24.7409     0.0000     2.0000 </r>
       <r>   -24.6273     0.0000     2.0000 </r>
       <r>   -24.5136     0.0000     2.0000 </r>
       <r>   -24.3999     0.0000     2.0000 </r>
       <r>   -24.2863     0.0000     2.0000 </r>
       <r>   -24.1726     0.0000     2.0000 </r>
       <r>   -24.0589     0.0000     2.0000 </r>
       <r>   -23.9453     0.0000     2.0000 </r>
       <r>   -23.8316     0.0000     2.0000 </r>
       <r>   -23.7179     0.0000     2.0000 </r>
       <r>   -23.6042     0.0000     2.0000 </r>
       <r>   -23.4906     0.0000     2.0000 </r>
       <r>   -23.3769     0.0000     2.0000 </r>
       <r>   -23.2632     0.0000     2.0000 </r>
       <r>   -23.1496     0.0000     2.0000 </r>
       <r>   -23.0359     0.0000     2.0000 </r>
       <r>   -22.9222     0.0000     2.0000 </r>
       <r>   -22.8086     0.0000     2.0000 </r>
       <r>   -22.6949     0.0000     2.0000 </r>
       <r>   -22.5812     0.0000     2.0000 </r>
       <r>   -22.4676     0.0000     2.0000 </r>
       <r>   -22.3539     0.0000     2.0000 </r>
       <r>   -22.2402     0.0000     2.0000 </r>
       <r>   -22.1266     0.0000     2.0000 </r>
       <r>   -22.0129     0.0000     2.0000 </r>
       <r>   -21.8992     0.0000     2.0000 </r>
       <r>   -21.7856     0.0000     2.0000 </r>
       <r>   -21.6719     0.0000     2.0000 </r>
       <r>   -21.5582     0.0000     2.0000 </r>
       <r>   -21.4446     0.0000     2.0000 </r>
       <r>   -21.3309     0.0000     2.0000 </r>
       <r>   -21.2172     0.0000     2.0000 </r>
       <r>   -21.1036     0.0000     2.0000 </r>
       <r>   -20.9899     0.0000     2.0000 </r>
       <r>   -20.8762     0.0000     2.0000 </r>
       <r>   -20.7626     0.0000     2.0000 </r>
       <r>   -20.6489     0.0000     2.0000 </r>
       <r>   -20.5352     0.0000     2.0000 </r>
       <r>   -20.4216     0.0000     2.0000 </r>
       <r>   -20.3079     0.0000     2.0000 </r>
       <r>   -20.1942     0.0000     2.0000 </r>
       <r>   -20.0806     0.0000     2.0000 </r>
       <r>   -19.9669     0.0000     2.0000 </r>
       <r>   -19.8532     0.0000     2.0000 </r>
       <r>   -19.7396     0.0000     2.0000 </r>
       <r>   -19.6259     0.0000     2.0000 </r>
       <r>   -19.5122     0.0000     2.0000 </r>
       <r>   -19.3986     0.0000     2.0000 </r>
       <r>   -19.2849     0.0000     2.0000 </r>
       <r>   -19.1712     0.0000     2.0000 </r>
       <r>   -19.0576     0.0000     2.0000 </r>
       <r>   -18.9439     0.0000     2.0000 </r>
       <r>   -18.8302     0.0000     2.0000 </r>
       <r>   -18.7166     0.0000     2.0000 </r>
       <r>   -18.6029     0.0000     2.0000 </r>
       <r>   -18.4892     0.0000     2.0000 </r>
       <r>   -18.3756     0.0000     2.0000 </r>
       <r>   -18.2619     0.0000     2.0000 </r>
       <r>   -18.1482     0.0000     2.0000 </r>
       <r>   -18.0346     0.0000     2.0000 </r>
       <r>   -17.9209     0.0000     2.0000 </r>
       <r>   -17.8072     0.0000     2.0000 </r>
       <r>   -17.6936     0.0000     2.0000 </r>
       <r>   -17.5799     0.0000     2.0000 </r>
       <r>   -17.4662     0.0000     2.0000 </r>
       <r>   -17.3526     0.0000     2.0000 </r>
       <r>   -17.2389     0.0000     2.0000 </r>
       <r>   -17.1252     0.0000     2.0000 </r>
       <r>   -17.0116     0.0000     2.0000 </r>
       <r>   -16.8979     0.0000     2.0000 </r>
       <r>   -16.7842     0.0000     2.0000 </r>
       <r>   -16.6706     0.0000     2.0000 </r>
       <r>   -16.5569     0.0000     2.0000 </r>
       <r>   -16.4432     0.0000     2.0000 </r>
       <r>   -16.3296     0.0000     2.0000 </r>
       <r>   -16.2159     0.0000     2.0000 </r>
       <r>   -16.1022     0.0001     2.0000 </r>
       <r>   -15.9886     0.0025     2.0003 </r>
       <r>   -15.8749     0.0262     2.0033 </r>
       <r>   -15.7612     0.0579     2.0099 </r>
       <r>   -15.6476    -0.3640     1.9685 </r>
       <r>   -15.5339    -0.5777     1.9028 </r>
       <r>   -15.4202     4.4242     2.4057 </r>
       <r>   -15.3066     9.9361     3.5351 </r>
       <r>   -15.1929     4.8923     4.0912 </r>
       <r>   -15.0792    -0.4745     4.0373 </r>
       <r>   -14.9656    -0.4132     3.9903 </r>
       <r>   -14.8519     0.0590     3.9970 </r>
       <r>   -14.7382     0.0712     4.0051 </r>
       <r>   -14.6246     0.0195     4.0073 </r>
       <r>   -14.5109    -0.5915     3.9401 </r>
       <r>   -14.3972     0.2526     3.9688 </r>
       <r>   -14.2835     6.4430     4.7012 </r>
       <r>   -14.1699     8.8039     5.7019 </r>
       <r>   -14.0562     6.7066     6.4642 </r>
       <r>   -13.9425     9.1132     7.5001 </r>
       <r>   -13.8289     5.0663     8.0760 </r>
       <r>   -13.7152    -0.3175     8.0399 </r>
       <r>   -13.6015    -0.4356     7.9904 </r>
       <r>   -13.4879     0.0499     7.9960 </r>
       <r>   -13.3742     0.0314     7.9996 </r>
       <r>   -13.2605     0.0034     8.0000 </r>
       <r>   -13.1469     0.0001     8.0000 </r>
       <r>   -13.0332     0.0000     8.0000 </r>
       <r>   -12.9195     0.0000     8.0000 </r>
       <r>   -12.8059     0.0000     8.0000 </r>
       <r>   -12.6922     0.0000     8.0000 </r>
       <r>   -12.5785     0.0000     8.0000 </r>
       <r>   -12.4649     0.0000     8.0000 </r>
       <r>   -12.3512     0.0000     8.0000 </r>
       <r>   -12.2375     0.0000     8.0000 </r>
       <r>   -12.1239     0.0000     8.0000 </r>
       <r>   -12.0102     0.0000     8.0000 </r>
       <r>   -11.8965     0.0000     8.0000 </r>
       <r>   -11.7829     0.0003     8.0000 </r>
       <r>   -11.6692     0.0064     8.0008 </r>
       <r>   -11.5555     0.0447     8.0059 </r>
       <r>   -11.4419     0.0021     8.0061 </r>
       <r>   -11.3282    -0.6521     7.9320 </r>
       <r>   -11.2145     0.3724     7.9743 </r>
       <r>   -11.1009     7.1178     8.7833 </r>
       <r>   -10.9872     9.2635     9.8363 </r>
       <r>   -10.8735     2.3182    10.0998 </r>
       <r>   -10.7599    -0.7992    10.0090 </r>
       <r>   -10.6462    -0.1564     9.9912 </r>
       <r>   -10.5325     0.0616     9.9982 </r>
       <r>   -10.4189     0.0149     9.9999 </r>
       <r>   -10.3052     0.0011    10.0000 </r>
       <r>   -10.1915     0.0000    10.0000 </r>
       <r>   -10.0779     0.0000    10.0000 </r>
       <r>    -9.9642     0.0000    10.0000 </r>
       <r>    -9.8505     0.0000    10.0000 </r>
       <r>    -9.7369     0.0000    10.0000 </r>
       <r>    -9.6232     0.0000    10.0000 </r>
       <r>    -9.5095     0.0000    10.0000 </r>
       <r>    -9.3959     0.0000    10.0000 </r>
       <r>    -9.2822     0.0000    10.0000 </r>
       <r>    -9.1685     0.0000    10.0000 </r>
       <r>    -9.0549     0.0000    10.0000 </r>
       <r>    -8.9412     0.0000    10.0000 </r>
       <r>    -8.8275     0.0000    10.0000 </r>
       <r>    -8.7139     0.0002    10.0000 </r>
       <r>    -8.6002     0.0051    10.0006 </r>
       <r>    -8.4865     0.0396    10.0051 </r>
       <r>    -8.3729     0.0241    10.0078 </r>
       <r>    -8.2592    -0.5809     9.9418 </r>
       <r>    -8.1455     0.0421     9.9466 </r>
       <r>    -8.0319     6.4447    10.6792 </r>
       <r>    -7.9182     9.5970    11.7700 </r>
       <r>    -7.8045     2.9868    12.1095 </r>
       <r>    -7.6909    -0.8000    12.0186 </r>
       <r>    -7.5772    -0.9294    11.9129 </r>
       <r>    -7.4635     0.8323    12.0075 </r>
       <r>    -7.3499     7.7742    12.8912 </r>
       <r>    -7.2362     8.8425    13.8963 </r>
       <r>    -7.1225     1.7649    14.0969 </r>
       <r>    -7.0089    -0.7315    14.0138 </r>
       <r>    -6.8952    -0.3876    13.9697 </r>
       <r>    -6.7815    -0.5209    13.9105 </r>
       <r>    -6.6679     3.7665    14.3386 </r>
       <r>    -6.5542     8.5628    15.3119 </r>
       <r>    -6.4405     7.2132    16.1318 </r>
       <r>    -6.3269    13.7712    17.6972 </r>
       <r>    -6.2132    19.7131    19.9379 </r>
       <r>    -6.0995    24.1022    22.6775 </r>
       <r>    -5.9859    33.2695    26.4592 </r>
       <r>    -5.8722    41.6927    31.1983 </r>
       <r>    -5.7585    50.8312    36.9761 </r>
       <r>    -5.6449    74.9728    45.4980 </r>
       <r>    -5.5312   159.6158    63.6411 </r>
       <r>    -5.4175   272.2662    94.5888 </r>
       <r>    -5.3039   279.0795   126.3109 </r>
       <r>    -5.1902   218.8420   151.1861 </r>
       <r>    -5.0765   233.9270   177.7759 </r>
       <r>    -4.9628   318.0372   213.9262 </r>
       <r>    -4.8492   347.9596   253.4778 </r>
       <r>    -4.7355   303.0690   287.9267 </r>
       <r>    -4.6218   330.1733   325.4565 </r>
       <r>    -4.5082   404.6005   371.4463 </r>
       <r>    -4.3945   413.0502   418.3965 </r>
       <r>    -4.2808   477.6787   472.6928 </r>
       <r>    -4.1672   534.6729   533.4675 </r>
       <r>    -4.0535   333.9041   571.4214 </r>
       <r>    -3.9398    76.3838   580.1037 </r>
       <r>    -3.8262    14.7099   581.7758 </r>
       <r>    -3.7125    26.5568   584.7944 </r>
       <r>    -3.5988    11.4304   586.0937 </r>
       <r>    -3.4852    17.2728   588.0570 </r>
       <r>    -3.3715    32.6718   591.7707 </r>
       <r>    -3.2578    16.7598   593.6758 </r>
       <r>    -3.1442     0.8719   593.7749 </r>
       <r>    -3.0305    27.9799   596.9553 </r>
       <r>    -2.9168    60.6154   603.8453 </r>
       <r>    -2.8032    36.4078   607.9836 </r>
       <r>    -2.6895     4.1028   608.4500 </r>
       <r>    -2.5758     9.1290   609.4876 </r>
       <r>    -2.4622    25.1595   612.3475 </r>
       <r>    -2.3485    29.2803   615.6757 </r>
       <r>    -2.2348    18.5297   617.7819 </r>
       <r>    -2.1212    14.8101   619.4653 </r>
       <r>    -2.0075    25.6853   622.3849 </r>
       <r>    -1.8938    38.3408   626.7430 </r>
       <r>    -1.7802    43.4429   631.6810 </r>
       <r>    -1.6665    45.3612   636.8371 </r>
       <r>    -1.5528    41.2675   641.5278 </r>
       <r>    -1.4392    25.1322   644.3845 </r>
       <r>    -1.3255    19.4374   646.5939 </r>
       <r>    -1.2118    24.1677   649.3410 </r>
       <r>    -1.0982    29.5642   652.7015 </r>
       <r>    -0.9845    39.9575   657.2433 </r>
       <r>    -0.8708    48.5423   662.7610 </r>
       <r>    -0.7572    46.5893   668.0566 </r>
       <r>    -0.6435    31.2947   671.6138 </r>
       <r>    -0.5298     6.0259   672.2988 </r>
       <r>    -0.4162    -2.5266   672.0116 </r>
       <r>    -0.3025    -0.3842   671.9679 </r>
       <r>    -0.1888     0.2252   671.9935 </r>
       <r>    -0.0752     0.0530   671.9995 </r>
       <r>     0.0385     0.0040   672.0000 </r>
       <r>     0.1522     0.0001   672.0000 </r>
       <r>     0.2658     0.0000   672.0000 </r>
       <r>     0.3795     0.0000   672.0000 </r>
       <r>     0.4932     0.0000   672.0000 </r>
       <r>     0.6068     0.0000   672.0000 </r>
       <r>     0.7205     0.0000   672.0000 </r>
       <r>     0.8342     0.0000   672.0000 </r>
       <r>     0.9478     0.0000   672.0000 </r>
       <r>     1.0615     0.0000   672.0000 </r>
       <r>     1.1752     0.0000   672.0000 </r>
       <r>     1.2888     0.0000   672.0000 </r>
      </set>
     </set>
    </array>
   </total>
  </dos>
 </calculation>
 <structure name="finalpos" >
  <crystal>
   <varray name="basis" >
    <v>      30.00000000       0.00000000       0.00000000 </v>
    <v>       0.00000000      30.00000000       0.00000000 </v>
    <v>       0.00000000       0.00000000      30.00000000 </v>
   </varray>
   <i name="volume">  27000.00000000 </i>
   <varray name="rec_basis" >
    <v>       0.03333333       0.00000000       0.00000000 </v>
    <v>       0.00000000       0.03333333       0.00000000 </v>
    <v>       0.00000000       0.00000000       0.03333333 </v>
   </varray>
  </crystal>
  <varray name="positions" >
   <v>       0.44576020       0.32826710       0.41691983 </v>
   <v>       0.67173288       0.55423978       0.41691983 </v>
   <v>       0.55423980       0.32826710       0.41691983 </v>
   <v>       0.32826712       0.55423978       0.41691983 </v>
   <v>       0.50000000       0.38250690       0.34021317 </v>
   <v>       0.50000000       0.38250690       0.65978680 </v>
   <v>       0.50000000       0.27609440       0.50000000 </v>
   <v>       0.27609443       0.49999998       0.50000000 </v>
   <v>       0.72390557       0.49999998       0.50000000 </v>
   <v>       0.50000000       0.72390555       0.50000000 </v>
   <v>       0.61195280       0.38804720       0.34167483 </v>
   <v>       0.61195280       0.38804720       0.65832513 </v>
   <v>       0.38804722       0.61195278       0.34167483 </v>
   <v>       0.38804722       0.61195278       0.65832513 </v>
   <v>       0.38804720       0.38804720       0.34167483 </v>
   <v>       0.38804720       0.38804720       0.65832513 </v>
   <v>       0.61195278       0.61195278       0.34167483 </v>
   <v>       0.61195278       0.61195278       0.65832513 </v>
   <v>       0.44576020       0.32826710       0.58308023 </v>
   <v>       0.67173288       0.55423978       0.58308023 </v>
   <v>       0.55791699       0.44208301       0.41809300 </v>
   <v>       0.32826705       0.44576024       0.41691983 </v>
   <v>       0.55423973       0.67173293       0.41691983 </v>
   <v>       0.55423980       0.32826710       0.58308023 </v>
   <v>       0.32826712       0.55423978       0.58308023 </v>
   <v>       0.67173295       0.44576024       0.41691983 </v>
   <v>       0.44576027       0.67173293       0.41691983 </v>
   <v>       0.44208301       0.44208301       0.41809300 </v>
   <v>       0.50000000       0.38416601       0.50000000 </v>
   <v>       0.61749315       0.50000005       0.34021317 </v>
   <v>       0.61749315       0.50000005       0.65978680 </v>
   <v>       0.38250685       0.50000005       0.34021317 </v>
   <v>       0.38250685       0.50000005       0.65978680 </v>
   <v>       0.38317830       0.38317830       0.50000000 </v>
   <v>       0.61682172       0.61682172       0.50000000 </v>
   <v>       0.61682170       0.38317830       0.50000000 </v>
   <v>       0.38317828       0.61682172       0.50000000 </v>
   <v>       0.50000000       0.50000000       0.33478917 </v>
   <v>       0.50000000       0.50000000       0.66521087 </v>
   <v>       0.32826705       0.44576024       0.58308023 </v>
   <v>       0.55423973       0.67173293       0.58308023 </v>
   <v>       0.55791699       0.44208301       0.58190703 </v>
   <v>       0.44208298       0.55791702       0.41809300 </v>
   <v>       0.44208301       0.44208301       0.58190703 </v>
   <v>       0.67173295       0.44576024       0.58308023 </v>
   <v>       0.44576027       0.67173293       0.58308023 </v>
   <v>       0.55791702       0.55791702       0.41809300 </v>
   <v>       0.38416599       0.50000002       0.50000000 </v>
   <v>       0.61583401       0.50000002       0.50000000 </v>
   <v>       0.50000000       0.61749319       0.34021317 </v>
   <v>       0.50000000       0.61749319       0.65978680 </v>
   <v>       0.50000000       0.50000000       0.50000000 </v>
   <v>       0.44208298       0.55791702       0.58190703 </v>
   <v>       0.55791702       0.55791702       0.58190703 </v>
   <v>       0.50000000       0.61583404       0.50000000 </v>
   <v>       0.45311940       0.37823463       0.61898897 </v>
   <v>       0.44313730       0.35230757       0.64432483 </v>
  </varray>
  <varray name="selective"  type="logical" >
   <v type="logical" >  F  F  F </v>
   <v type="logical" >  F  F  F </v>
   <v type="logical" >  F  F  F </v>
   <v type="logical" >  F  F  F </v>
   <v type="logical" >  F  F  F </v>
   <v type="logical" >  F  F  F </v>
   <v type="logical" >  F  F  F </v>
   <v type="logical" >  F  F  F </v>
   <v type="logical" >  F  F  F </v>
   <v type="logical" >  F  F  F </v>
   <v type="logical" >  F  F  F </v>
   <v type="logical" >  F  F  F </v>
   <v type="logical" >  F  F  F </v>
   <v type="logical" >  F  F  F </v>
   <v type="logical" >  F  F  F </v>
   <v type="logical" >  F  F  F </v>
   <v type="logical" >  F  F  F </v>
   <v type="logical" >  F  F  F </v>
   <v type="logical" >  F  F  F </v>
   <v type="logical" >  F  F  F </v>
   <v type="logical" >  F  F  F </v>
   <v type="logical" >  F  F  F </v>
   <v type="logical" >  F  F  F </v>
   <v type="logical" >  F  F  F </v>
   <v type="logical" >  F  F  F </v>
   <v type="logical" >  F  F  F </v>
   <v type="logical" >  F  F  F </v>
   <v type="logical" >  F  F  F </v>
   <v type="logical" >  F  F  F </v>
   <v type="logical" >  F  F  F </v>
   <v type="logical" >  F  F  F </v>
   <v type="logical" >  F  F  F </v>
   <v type="logical" >  F  F  F </v>
   <v type="logical" >  F  F  F </v>
   <v type="logical" >  F  F  F </v>
   <v type="logical" >  F  F  F </v>
   <v type="logical" >  F  F  F </v>
   <v type="logical" >  F  F  F </v>
   <v type="logical" >  F  F  F </v>
   <v type="logical" >  F  F  F </v>
   <v type="logical" >  F  F  F </v>
   <v type="logical" >  F  F  F </v>
   <v type="logical" >  F  F  F </v>
   <v type="logical" >  F  F  F </v>
   <v type="logical" >  F  F  F </v>
   <v type="logical" >  F  F  F </v>
   <v type="logical" >  F  F  F </v>
   <v type="logical" >  F  F  F </v>
   <v type="logical" >  F  F  F </v>
   <v type="logical" >  F  F  F </v>
   <v type="logical" >  F  F  F </v>
   <v type="logical" >  F  F  F </v>
   <v type="logical" >  F  F  F </v>
   <v type="logical" >  F  F  F </v>
   <v type="logical" >  F  F  F </v>
   <v type="logical" >  F  F  F </v>
   <v type="logical" >  F  F  F </v>
  </varray>
  <nose>
   <v>      -3.00000000       0.00000000       0.00010000       0.00010000 </v>
  </nose>
 </structure>
</modeling>
