       N       E                     dE             d eps       ncg     rms          rms(c)
DAV:   1     0.439242875294E+04    0.43924E+04   -0.10050E+05   688   0.815E+02
DAV:   2     0.203115011124E+04   -0.23613E+04   -0.21227E+04  1208   0.105E+02
DAV:   3     0.240502371887E+03   -0.17906E+04   -0.16804E+04  1000   0.921E+01
DAV:   4    -0.133484917380E+03   -0.37399E+03   -0.31928E+03   832   0.439E+01
DAV:   5    -0.180398648680E+03   -0.46914E+02   -0.38700E+02  1048   0.148E+01    0.154E+01
RMM:   6    -0.180773446105E+03   -0.37480E+00   -0.60801E+01   724   0.935E+00    0.226E+01
RMM:   7    -0.183006414309E+03   -0.22330E+01   -0.19482E+01   843   0.479E+00    0.228E+01
RMM:   8    -0.184572059512E+03   -0.15656E+01   -0.72507E+00   776   0.356E+00    0.261E+01
RMM:   9    -0.181942258092E+03    0.26298E+01   -0.50288E+00   728   0.315E+00    0.252E+01
RMM:  10    -0.180068788016E+03    0.18735E+01   -0.30321E+00   732   0.247E+00    0.213E+01
RMM:  11    -0.179072263555E+03    0.99652E+00   -0.20029E+00   734   0.208E+00    0.204E+01
RMM:  12    -0.177867684839E+03    0.12046E+01   -0.16886E+00   724   0.193E+00    0.163E+01
RMM:  13    -0.177236541818E+03    0.63114E+00   -0.16859E+00   712   0.191E+00    0.195E+01
RMM:  14    -0.177070067076E+03    0.16647E+00   -0.14653E+00   712   0.180E+00    0.143E+01
RMM:  15    -0.177040915883E+03    0.29151E-01   -0.10913E+00   720   0.157E+00    0.157E+01
RMM:  16    -0.176631428554E+03    0.40949E+00   -0.57710E-01   713   0.116E+00    0.141E+01
RMM:  17    -0.176463372130E+03    0.16806E+00   -0.58624E-01   705   0.116E+00    0.124E+01
RMM:  18    -0.176141373514E+03    0.32200E+00   -0.41262E-01   701   0.101E+00    0.112E+01
RMM:  19    -0.175817860152E+03    0.32351E+00   -0.44103E-01   695   0.101E+00    0.779E+00
RMM:  20    -0.175681118368E+03    0.13674E+00   -0.27388E-01   698   0.792E-01    0.766E+00
RMM:  21    -0.175724478182E+03   -0.43360E-01   -0.25973E-01   700   0.770E-01    0.942E+00
RMM:  22    -0.175521725549E+03    0.20275E+00   -0.19271E-01   695   0.674E-01    0.656E+00
RMM:  23    -0.175392616321E+03    0.12911E+00   -0.10311E-01   697   0.502E-01    0.525E+00
RMM:  24    -0.175364863802E+03    0.27753E-01   -0.82885E-02   697   0.446E-01    0.443E+00
RMM:  25    -0.175303726924E+03    0.61137E-01   -0.60575E-02   694   0.392E-01    0.328E+00
RMM:  26    -0.175295809692E+03    0.79172E-02   -0.43660E-02   697   0.332E-01    0.347E+00
RMM:  27    -0.175277304409E+03    0.18505E-01   -0.37844E-02   693   0.317E-01    0.307E+00
RMM:  28    -0.175251211468E+03    0.26093E-01   -0.28117E-02   694   0.276E-01    0.215E+00
RMM:  29    -0.175237730346E+03    0.13481E-01   -0.20309E-02   693   0.231E-01    0.172E+00
RMM:  30    -0.175228790896E+03    0.89395E-02   -0.12078E-02   693   0.183E-01    0.136E+00
RMM:  31    -0.175223580918E+03    0.52100E-02   -0.66501E-03   689   0.139E-01    0.107E+00
RMM:  32    -0.175220184510E+03    0.33964E-02   -0.48126E-03   690   0.113E-01    0.921E-01
RMM:  33    -0.175218021887E+03    0.21626E-02   -0.34976E-03   691   0.963E-02    0.745E-01
RMM:  34    -0.175220365123E+03   -0.23432E-02   -0.34707E-03   689   0.940E-02    0.941E-01
RMM:  35    -0.175218247093E+03    0.21180E-02   -0.22036E-03   688   0.784E-02    0.520E-01
RMM:  36    -0.175217990873E+03    0.25622E-03   -0.11235E-03   687   0.588E-02    0.287E-01
RMM:  37    -0.175220274356E+03   -0.22835E-02   -0.10068E-03   683   0.497E-02    0.336E-01
RMM:  38    -0.175221474811E+03   -0.12005E-02   -0.59377E-04   625   0.399E-02    0.248E-01
RMM:  39    -0.175223360318E+03   -0.18855E-02   -0.54650E-04   576   0.361E-02    0.254E-01
RMM:  40    -0.175227769133E+03   -0.44088E-02   -0.87350E-04   678   0.434E-02    0.342E-01
RMM:  41    -0.175229848750E+03   -0.20796E-02   -0.50814E-04   548   0.331E-02    0.252E-01
RMM:  42    -0.175232322810E+03   -0.24741E-02   -0.47592E-04   523   0.311E-02    0.180E-01
RMM:  43    -0.175234222416E+03   -0.18996E-02   -0.33453E-04   444   0.259E-02    0.145E-01
RMM:  44    -0.175235713475E+03   -0.14911E-02   -0.25151E-04   422   0.214E-02    0.107E-01
RMM:  45    -0.175237748553E+03   -0.20351E-02   -0.33031E-04   461   0.223E-02    0.127E-01
RMM:  46    -0.175239004999E+03   -0.12564E-02   -0.19691E-04   413   0.180E-02    0.659E-02
RMM:  47    -0.175239912705E+03   -0.90771E-03   -0.11656E-04   413   0.135E-02    0.744E-02
RMM:  48    -0.175241431083E+03   -0.15184E-02   -0.11650E-04   405   0.127E-02    0.481E-02
RMM:  49    -0.175241853861E+03   -0.42278E-03   -0.53976E-05   408   0.838E-03    0.426E-02
RMM:  50    -0.175242953319E+03   -0.10995E-02   -0.54911E-05   402   0.853E-03    0.411E-02
RMM:  51    -0.175243369537E+03   -0.41622E-03   -0.30501E-05   385   0.640E-03    0.210E-02
RMM:  52    -0.175243729822E+03   -0.36028E-03   -0.15610E-05   278   0.503E-03    0.219E-02
RMM:  53    -0.175244344655E+03   -0.61483E-03   -0.17717E-05   320   0.509E-03    0.137E-02
RMM:  54    -0.175244577526E+03   -0.23287E-03   -0.51473E-06   170   0.387E-03    0.128E-02
RMM:  55    -0.175245055049E+03   -0.47752E-03   -0.17641E-05   260   0.472E-03    0.143E-02
RMM:  56    -0.175245168673E+03   -0.11362E-03   -0.12584E-06   107   0.363E-03    0.102E-02
RMM:  57    -0.175245436255E+03   -0.26758E-03   -0.19257E-05   274   0.471E-03    0.817E-03
RMM:  58    -0.175245547457E+03   -0.11120E-03   -0.57896E-06   154   0.352E-03    0.629E-03
RMM:  59    -0.175245682398E+03   -0.13494E-03   -0.83617E-06   168   0.370E-03    0.705E-03
RMM:  60    -0.175245739525E+03   -0.57127E-04   -0.39262E-06   126   0.333E-03
   1 F= -.17524574E+03 E0= -.17521645E+03  d E =-.117138E+00
