 vasp.5.4.4.18Apr17-6-g9f103f2a35 (build Sep 03 2018 23:53:05) complex          
  
 executed on             LinuxIFC date 2021.12.02  17:16:16
 running on    1 total cores
 distrk:  each k-point on    1 cores,    1 groups
 distr:  one band on NCORES_PER_BAND=   1 cores,    1 groups


--------------------------------------------------------------------------------------------------------


 INCAR:
 POTCAR:    PAW_PBE Pd 04Jan2005                  
 POTCAR:    PAW_PBE C 08Apr2002                   
 POTCAR:    PAW_PBE O 08Apr2002                   
 POTCAR:    PAW_PBE Pd 04Jan2005                  
   VRHFIN =Pd : s1 d9                                                           
   LEXCH  = PE                                                                  
   EATOM  =   809.7530 eV,   59.5152 Ry                                         
                                                                                
   TITEL  = PAW_PBE Pd 04Jan2005                                                
   LULTRA =        F    use ultrasoft PP ?                                      
   IUNSCR =        1    unscreen: 0-lin 1-nonlin 2-no                           
   RPACOR =    2.000    partial core radius                                     
   POMASS =  106.420; ZVAL   =   10.000    mass and valenz                      
   RCORE  =    2.600    outmost cutoff radius                                   
   RWIGS  =    2.710; RWIGS  =    1.434    wigner-seitz radius (au A)           
   ENMAX  =  250.925; ENMIN  =  188.194 eV                                      
   ICORE  =        3    local potential                                         
   LCOR   =        T    correct aug charges                                     
   LPAW   =        T    paw PP                                                  
   EAUG   =  416.230                                                            
   DEXC   =    0.000                                                            
   RMAX   =    2.653    core radius for proj-oper                               
   RAUG   =    1.300    factor for augmentation sphere                          
   RDEP   =    2.734    radius for radial grids                                 
   RDEPT  =    2.103    core radius for aug-charge                              
                                                                                
   Atomic configuration                                                         
   12 entries                                                                   
     n  l   j            E        occ.                                          
     1  0  0.50    -24164.6631   2.0000                                         
     2  0  0.50     -3530.9218   2.0000                                         
     2  1  1.50     -3165.6822   6.0000                                         
     3  0  0.50      -639.4577   2.0000                                         
     3  1  1.50      -519.4532   6.0000                                         
     3  2  2.50      -328.9757  10.0000                                         
     4  0  0.50       -88.7014   2.0000                                         
     4  1  1.50       -54.4540   6.0000                                         
     4  2  2.50        -6.6878   9.0000                                         
     5  0  0.50        -4.3543   1.0000                                         
     5  1  0.50        -1.3606   0.0000                                         
     4  3  2.50        -1.3606   0.0000                                         
   Description                                                                  
     l       E           TYP  RCUT    TYP  RCUT                                 
     2     -6.6878251     23  2.400                                             
     2     -8.0484077     23  2.400                                             
     0     -4.3542939     23  2.400                                             
     0      4.3406793     23  2.400                                             
     1     -4.0817478     23  2.600                                             
     1     15.8380318     23  2.600                                             
     3     -4.0817478     23  2.400                                             
  local pseudopotential read in
  partial core-charges read in
  partial kinetic energy density read in
  atomic valenz-charges read in
  non local Contribution for L=           2  read in
    real space projection operators read in
  non local Contribution for L=           2  read in
    real space projection operators read in
  non local Contribution for L=           0  read in
    real space projection operators read in
  non local Contribution for L=           0  read in
    real space projection operators read in
  non local Contribution for L=           1  read in
    real space projection operators read in
  non local Contribution for L=           1  read in
    real space projection operators read in
    PAW grid and wavefunctions read in
 
   number of l-projection  operators is LMAX  =           6
   number of lm-projection operators is LMMAX =          18
 
 POTCAR:    PAW_PBE C 08Apr2002                   
   VRHFIN =C: s2p2                                                              
   LEXCH  = PE                                                                  
   EATOM  =   147.1560 eV,   10.8157 Ry                                         
                                                                                
   TITEL  = PAW_PBE C 08Apr2002                                                 
   LULTRA =        F    use ultrasoft PP ?                                      
   IUNSCR =        1    unscreen: 0-lin 1-nonlin 2-no                           
   RPACOR =    1.200    partial core radius                                     
   POMASS =   12.011; ZVAL   =    4.000    mass and valenz                      
   RCORE  =    1.500    outmost cutoff radius                                   
   RWIGS  =    1.630; RWIGS  =    0.863    wigner-seitz radius (au A)           
   ENMAX  =  400.000; ENMIN  =  300.000 eV                                      
   ICORE  =        2    local potential                                         
   LCOR   =        T    correct aug charges                                     
   LPAW   =        T    paw PP                                                  
   EAUG   =  644.873                                                            
   DEXC   =    0.000                                                            
   RMAX   =    1.529    core radius for proj-oper                               
   RAUG   =    1.300    factor for augmentation sphere                          
   RDEP   =    1.501    radius for radial grids                                 
   RDEPT  =    1.300    core radius for aug-charge                              
                                                                                
   Atomic configuration                                                         
    4 entries                                                                   
     n  l   j            E        occ.                                          
     1  0  0.50      -273.3789   2.0000                                         
     2  0  0.50       -13.7508   2.0000                                         
     2  1  0.50        -5.2854   2.0000                                         
     3  2  1.50        -5.4423   0.0000                                         
   Description                                                                  
     l       E           TYP  RCUT    TYP  RCUT                                 
     0    -13.7508458     23  1.200                                             
     0     -8.2022199     23  1.200                                             
     1     -5.2854383     23  1.500                                             
     1     34.0145650     23  1.500                                             
     2     -5.4423304      7  1.500                                             
  local pseudopotential read in
  partial core-charges read in
  partial kinetic energy density read in
  atomic valenz-charges read in
  non local Contribution for L=           0  read in
    real space projection operators read in
  non local Contribution for L=           0  read in
    real space projection operators read in
  non local Contribution for L=           1  read in
    real space projection operators read in
  non local Contribution for L=           1  read in
    real space projection operators read in
    PAW grid and wavefunctions read in
 
   number of l-projection  operators is LMAX  =           4
   number of lm-projection operators is LMMAX =           8
 
 POTCAR:    PAW_PBE O 08Apr2002                   
   VRHFIN =O: s2p4                                                              
   LEXCH  = PE                                                                  
   EATOM  =   432.3788 eV,   31.7789 Ry                                         
                                                                                
   TITEL  = PAW_PBE O 08Apr2002                                                 
   LULTRA =        F    use ultrasoft PP ?                                      
   IUNSCR =        1    unscreen: 0-lin 1-nonlin 2-no                           
   RPACOR =    1.200    partial core radius                                     
   POMASS =   16.000; ZVAL   =    6.000    mass and valenz                      
   RCORE  =    1.520    outmost cutoff radius                                   
   RWIGS  =    1.550; RWIGS  =    0.820    wigner-seitz radius (au A)           
   ENMAX  =  400.000; ENMIN  =  300.000 eV                                      
   ICORE  =        2    local potential                                         
   LCOR   =        T    correct aug charges                                     
   LPAW   =        T    paw PP                                                  
   EAUG   =  605.392                                                            
   DEXC   =    0.000                                                            
   RMAX   =    1.553    core radius for proj-oper                               
   RAUG   =    1.300    factor for augmentation sphere                          
   RDEP   =    1.550    radius for radial grids                                 
   RDEPT  =    1.329    core radius for aug-charge                              
                                                                                
   Atomic configuration                                                         
    4 entries                                                                   
     n  l   j            E        occ.                                          
     1  0  0.50      -514.6923   2.0000                                         
     2  0  0.50       -23.9615   2.0000                                         
     2  1  0.50        -9.0305   4.0000                                         
     3  2  1.50        -9.5241   0.0000                                         
   Description                                                                  
     l       E           TYP  RCUT    TYP  RCUT                                 
     0    -23.9615318     23  1.200                                             
     0     -9.5240782     23  1.200                                             
     1     -9.0304911     23  1.520                                             
     1      8.1634956     23  1.520                                             
     2     -9.5240782      7  1.500                                             
  local pseudopotential read in
  partial core-charges read in
  partial kinetic energy density read in
  kinetic energy density of atom read in
  atomic valenz-charges read in
  non local Contribution for L=           0  read in
    real space projection operators read in
  non local Contribution for L=           0  read in
    real space projection operators read in
  non local Contribution for L=           1  read in
    real space projection operators read in
  non local Contribution for L=           1  read in
    real space projection operators read in
    PAW grid and wavefunctions read in
 
   number of l-projection  operators is LMAX  =           4
   number of lm-projection operators is LMMAX =           8
 
 Optimization of the real space projectors (new method)

 maximal supplied QI-value         = 14.36
 optimisation between [QCUT,QGAM] = [ 10.20, 20.39] = [ 29.12,116.47] Ry 
 Optimized for a Real-space Cutoff    1.51 Angstroem

   l    n(q)    QCUT    max X(q) W(low)/X(q) W(high)/X(q)  e(spline) 
   2      8    10.197    59.108    0.26E-03    0.14E-03    0.96E-07
   2      8    10.197    58.101    0.27E-03    0.14E-03    0.98E-07
   0      9    10.197   102.235    0.54E-04    0.60E-05    0.72E-07
   0      9    10.197    58.388    0.52E-04    0.60E-05    0.68E-07
   1      9    10.197    22.191    0.18E-03    0.25E-03    0.79E-07
   1      9    10.197    15.590    0.15E-03    0.21E-03    0.69E-07
 Optimization of the real space projectors (new method)

 maximal supplied QI-value         = 25.13
 optimisation between [QCUT,QGAM] = [ 10.05, 20.36] = [ 28.30,116.06] Ry 
 Optimized for a Real-space Cutoff    1.30 Angstroem

   l    n(q)    QCUT    max X(q) W(low)/X(q) W(high)/X(q)  e(spline) 
   0      8    10.053   115.676    0.49E-03    0.72E-03    0.18E-06
   0      8    10.053    87.132    0.49E-03    0.71E-03    0.18E-06
   1      7    10.053     4.429    0.32E-03    0.31E-03    0.18E-06
   1      7    10.053     2.733    0.23E-03    0.19E-03    0.20E-06
 Optimization of the real space projectors (new method)

 maximal supplied QI-value         = 24.76
 optimisation between [QCUT,QGAM] = [ 10.15, 20.30] = [ 28.85,115.39] Ry 
 Optimized for a Real-space Cutoff    1.38 Angstroem

   l    n(q)    QCUT    max X(q) W(low)/X(q) W(high)/X(q)  e(spline) 
   0      8    10.150    20.381    0.22E-03    0.32E-03    0.29E-06
   0      8    10.150    15.268    0.23E-03    0.35E-03    0.30E-06
   1      8    10.150     5.964    0.46E-03    0.53E-03    0.21E-06
   1      8    10.150     5.382    0.38E-03    0.45E-03    0.19E-06

 ----------------------------------------------------------------------------- 
|                                                                             |
|  ADVICE TO THIS USER RUNNING 'VASP/VAMP'   (HEAR YOUR MASTER'S VOICE ...):  |
|                                                                             |
|      You enforced a specific xc-type in the INCAR file,                     |
|      a different type was found on the POTCAR file                          |
|          I HOPE YOU KNOW, WHAT YOU ARE  DOING                               |
|                                                                             |
 ----------------------------------------------------------------------------- 

  PAW_PBE Pd 04Jan2005                  :
 energy of atom  1       EATOM= -809.7530
 kinetic energy error for atom=    0.0091 (will be added to EATOM!!)
  PAW_PBE C 08Apr2002                   :
 energy of atom  2       EATOM= -147.1560
 kinetic energy error for atom=    0.0288 (will be added to EATOM!!)
  PAW_PBE O 08Apr2002                   :
 energy of atom  3       EATOM= -432.3788
 kinetic energy error for atom=    0.1156 (will be added to EATOM!!)
 
 
 POSCAR: Pd55PES                                 
  positions in cartesian coordinates
  No initial velocities read in
 exchange correlation table for  LEXCH =        9
   RHO(1)=    0.500       N(1)  =     2000
   RHO(2)=  100.500       N(2)  =     4000
 


--------------------------------------------------------------------------------------------------------


 ion  position               nearest neighbor table
   1  0.446  0.328  0.417-   3 3.25   5 3.25   7 3.36  15 3.36  29 3.42  28 3.42
   2  0.672  0.554  0.417-  26 3.25  30 3.25  17 3.36   9 3.36  47 3.42  49 3.42
   3  0.554  0.328  0.417-   1 3.25   5 3.25   7 3.36  11 3.36  29 3.42  21 3.42
   4  0.328  0.554  0.417-  56 2.50  32 3.25  22 3.25  13 3.36   8 3.36  43 3.42  48 3.42
   5  0.500  0.383  0.340-   1 3.25   3 3.25  11 3.36  15 3.36  21 3.42  28 3.42
   6  0.500  0.383  0.660-  24 3.25  19 3.25  16 3.36  12 3.36  42 3.42  44 3.42
   7  0.500  0.276  0.500-  29 3.24   3 3.36   1 3.36  19 3.36  24 3.36
   8  0.276  0.500  0.500-  48 3.24  22 3.36  40 3.36   4 3.36  25 3.36
   9  0.724  0.500  0.500-  49 3.24  26 3.36  45 3.36   2 3.36  20 3.36
  10  0.500  0.724  0.500-  55 3.24  27 3.36  23 3.36  46 3.36  41 3.36
  11  0.612  0.388  0.342-  21 3.24   5 3.36   3 3.36  30 3.36  26 3.36
  12  0.612  0.388  0.658-  42 3.24  24 3.36  45 3.36   6 3.36  31 3.36
  13  0.388  0.612  0.342-  43 3.24  32 3.36  50 3.36   4 3.36  27 3.36
  14  0.388  0.612  0.658-  53 3.24  25 3.36  33 3.36  51 3.36  46 3.36
  15  0.388  0.388  0.342-  28 3.24   5 3.36   1 3.36  32 3.36  22 3.36
  16  0.388  0.388  0.658-  44 3.24  19 3.36  40 3.36   6 3.36  33 3.36
  17  0.612  0.612  0.342-  47 3.24  30 3.36  50 3.36   2 3.36  23 3.36
  18  0.612  0.612  0.658-  54 3.24  31 3.36  20 3.36  51 3.36  41 3.36
  19  0.446  0.328  0.583-   6 3.25  24 3.25  16 3.36   7 3.36  44 3.42  29 3.42
  20  0.672  0.554  0.583-  31 3.25  45 3.25  18 3.36   9 3.36  54 3.42  49 3.42
  21  0.558  0.442  0.418-  11 3.24   5 3.42   3 3.42  30 3.42  26 3.42
  22  0.328  0.446  0.417-   4 3.25  32 3.25   8 3.36  15 3.36  48 3.42  28 3.42
  23  0.554  0.672  0.417-  27 3.25  50 3.25  10 3.36  17 3.36  55 3.42  47 3.42
  24  0.554  0.328  0.583-   6 3.25  19 3.25  12 3.36   7 3.36  42 3.42  29 3.42
  25  0.328  0.554  0.583-  33 3.25  40 3.25  14 3.36   8 3.36  53 3.42  48 3.42
  26  0.672  0.446  0.417-   2 3.25  30 3.25   9 3.36  11 3.36  49 3.42  21 3.42
  27  0.446  0.672  0.417-  23 3.25  50 3.25  10 3.36  13 3.36  55 3.42  43 3.42
  28  0.442  0.442  0.418-  15 3.24   5 3.42   1 3.42  32 3.42  22 3.42
  29  0.500  0.384  0.500-   7 3.24   3 3.42   1 3.42  24 3.42  19 3.42
  30  0.617  0.500  0.340-   2 3.25  26 3.25  17 3.36  11 3.36  47 3.42  21 3.42
  31  0.617  0.500  0.660-  20 3.25  45 3.25  18 3.36  12 3.36  54 3.42  42 3.42
  32  0.383  0.500  0.340-   4 3.25  22 3.25  13 3.36  15 3.36  43 3.42  28 3.42
  33  0.383  0.500  0.660-  25 3.25  40 3.25  14 3.36  16 3.36  53 3.42  44 3.42
  34  0.383  0.383  0.500-
  35  0.617  0.617  0.500-
  36  0.617  0.383  0.500-
  37  0.383  0.617  0.500-
  38  0.500  0.500  0.335-
  39  0.500  0.500  0.665-
  40  0.328  0.446  0.583-  33 3.25  25 3.25  16 3.36   8 3.36  44 3.42  48 3.42
  41  0.554  0.672  0.583-  46 3.25  51 3.25  10 3.36  18 3.36  54 3.42  55 3.42
  42  0.558  0.442  0.582-  12 3.24   6 3.42  24 3.42  31 3.42  45 3.42
  43  0.442  0.558  0.418-  13 3.24   4 3.42  32 3.42  27 3.42  50 3.42
  44  0.442  0.442  0.582-  16 3.24   6 3.42  19 3.42  33 3.42  40 3.42
  45  0.672  0.446  0.583-  20 3.25  31 3.25   9 3.36  12 3.36  49 3.42  42 3.42
  46  0.446  0.672  0.583-  41 3.25  51 3.25  10 3.36  14 3.36  53 3.42  55 3.42
  47  0.558  0.558  0.418-  17 3.24   2 3.42  30 3.42  23 3.42  50 3.42
  48  0.384  0.500  0.500-   8 3.24   4 3.42  22 3.42  25 3.42  40 3.42
  49  0.616  0.500  0.500-   9 3.24   2 3.42  26 3.42  20 3.42  45 3.42
  50  0.500  0.617  0.340-  27 3.25  23 3.25  13 3.36  17 3.36  43 3.42  47 3.42
  51  0.500  0.617  0.660-  41 3.25  46 3.25  14 3.36  18 3.36  53 3.42  54 3.42
  52  0.500  0.500  0.500-
  53  0.442  0.558  0.582-  14 3.24  25 3.42  33 3.42  51 3.42  46 3.42
  54  0.558  0.558  0.582-  18 3.24  31 3.42  20 3.42  51 3.42  41 3.42
  55  0.500  0.616  0.500-  10 3.24  23 3.42  27 3.42  41 3.42  46 3.42
  56  0.271  0.565  0.357-  57 1.13   4 2.50
  57  0.240  0.573  0.337-  56 1.13
 
  LATTYP: Found a simple cubic cell.
 ALAT       =    30.0000000000
  
  Lattice vectors:
  
 A1 = (  30.0000000000,   0.0000000000,   0.0000000000)
 A2 = (   0.0000000000,  30.0000000000,   0.0000000000)
 A3 = (   0.0000000000,   0.0000000000,  30.0000000000)


Analysis of symmetry for initial positions (statically):
=====================================================================
 Subroutine PRICEL returns:
 Original cell was already a primitive cell.
 

 Routine SETGRP: Setting up the symmetry group for a 
 simple cubic supercell.


 Subroutine GETGRP returns: Found  1 space group operations
 (whereof  1 operations were pure point group operations)
 out of a pool of 48 trial point group operations.


The static configuration has the point symmetry C_1 .


Analysis of symmetry for dynamics (positions and initial velocities):
=====================================================================
 Subroutine PRICEL returns:
 Original cell was already a primitive cell.
 

 Routine SETGRP: Setting up the symmetry group for a 
 simple cubic supercell.


 Subroutine GETGRP returns: Found  1 space group operations
 (whereof  1 operations were pure point group operations)
 out of a pool of 48 trial point group operations.


The dynamic configuration has the point symmetry C_1 .


Analysis of constrained symmetry for selective dynamics:
=====================================================================
 Subroutine PRICEL returns:
 Original cell was already a primitive cell.
 

 Routine SETGRP: Setting up the symmetry group for a 
 simple cubic supercell.


 Subroutine GETGRP returns: Found  1 space group operations
 (whereof  1 operations were pure point group operations)
 out of a pool of 48 trial point group operations.


The constrained configuration has the point symmetry C_1 .


 Subroutine INISYM returns: Found  1 space group operations
 (whereof  1 operations are pure point group operations),
 and found     1 'primitive' translations

 
 
 KPOINTS: K-points                                

Automatic generation of k-mesh.
Space group operators:
 irot       det(A)        alpha          n_x          n_y          n_z        tau_x        tau_y        tau_z
    1     1.000000     0.000000     1.000000     0.000000     0.000000     0.000000     0.000000     0.000000
 
 Subroutine IBZKPT returns following result:
 ===========================================
 
 Found      1 irreducible k-points:
 
 Following reciprocal coordinates:
            Coordinates               Weight
  0.000000  0.000000  0.000000      1.000000
 
 Following cartesian coordinates:
            Coordinates               Weight
  0.000000  0.000000  0.000000      1.000000
 


--------------------------------------------------------------------------------------------------------




 Dimension of arrays:
   k-points           NKPTS =      1   k-points in BZ     NKDIM =      1   number of bands    NBANDS=    336
   number of dos      NEDOS =    301   number of ions     NIONS =     57
   non local maximal  LDIM  =      6   non local SUM 2l+1 LMDIM =     18
   total plane-waves  NPLWV = ******
   max r-space proj   IRMAX =   1847   max aug-charges    IRDMAX=   6262
   dimension x,y,z NGX =   150 NGY =  150 NGZ =  150
   dimension x,y,z NGXF=   300 NGYF=  300 NGZF=  300
   support grid    NGXF=   300 NGYF=  300 NGZF=  300
   ions per type =              55   1   1
   NGX,Y,Z   is equivalent  to a cutoff of   8.31,  8.31,  8.31 a.u.
   NGXF,Y,Z  is equivalent  to a cutoff of  16.62, 16.62, 16.62 a.u.

 SYSTEM =  6_Pd100_top_free_z(O)                   
 POSCAR =  Pd55PES                                 

 Startparameter for this run:
   NWRITE =      2    write-flag & timer
   PREC   = normal    normal or accurate (medium, high low for compatibility)
   ISTART =      0    job   : 0-new  1-cont  2-samecut
   ICHARG =      2    charge: 1-file 2-atom 10-const
   ISPIN  =      1    spin polarized calculation?
   LNONCOLLINEAR =      F non collinear calculations
   LSORBIT =      F    spin-orbit coupling
   INIWAV =      1    electr: 0-lowe 1-rand  2-diag
   LASPH  =      F    aspherical Exc in radial PAW
   METAGGA=      F    non-selfconsistent MetaGGA calc.

 Electronic Relaxation 1
   ENCUT  =  400.0 eV  29.40 Ry    5.42 a.u.  48.92 48.92 48.92*2*pi/ulx,y,z
   ENINI  =  400.0     initial cutoff
   ENAUG  =  644.9 eV  augmentation charge cutoff
   NELM   =    100;   NELMIN=  6; NELMDL= -5     # of ELM steps 
   EDIFF  = 0.1E-03   stopping-criterion for ELM
   LREAL  =      T    real-space projection
   NLSPLINE    = F    spline interpolate recip. space projectors
   LCOMPAT=      F    compatible to vasp.4.4
   GGA_COMPAT  = T    GGA compatible to vasp.4.4-vasp.4.6
   LMAXPAW     = -100 max onsite density
   LMAXMIX     =    2 max onsite mixed and CHGCAR
   VOSKOWN=      0    Vosko Wilk Nusair interpolation
   ROPT   =   -0.00050  -0.00050  -0.00050
 Ionic relaxation
   EDIFFG = -.5E-01   stopping-criterion for IOM
   NSW    =      0    number of steps for IOM
   NBLOCK =      1;   KBLOCK =      1    inner block; outer block 
   IBRION =     -1    ionic relax: 0-MD 1-quasi-New 2-CG
   NFREE  =      1    steps in history (QN), initial steepest desc. (CG)
   ISIF   =      2    stress and relaxation
   IWAVPR =     10    prediction:  0-non 1-charg 2-wave 3-comb
   ISYM   =      2    0-nonsym 1-usesym 2-fastsym
   LCORR  =      T    Harris-Foulkes like correction to forces

   POTIM  = 0.5000    time-step for ionic-motion
   TEIN   =    0.0    initial temperature
   TEBEG  =    0.0;   TEEND  =   0.0 temperature during run
   SMASS  =  -3.00    Nose mass-parameter (am)
   estimated Nose-frequenzy (Omega)   =  0.10E-29 period in steps =****** mass=  -0.206E-25a.u.
   SCALEE = 1.0000    scale energy and forces
   NPACO  =    256;   APACO  = 16.0  distance and # of slots for P.C.
   PSTRESS=    0.0 pullay stress

  Mass of Ions in am
   POMASS = 106.42 12.01 16.00
  Ionic Valenz
   ZVAL   =  10.00  4.00  6.00
  Atomic Wigner-Seitz radii
   RWIGS  =  -1.00 -1.00 -1.00
  virtual crystal weights 
   VCA    =   1.00  1.00  1.00
   NELECT =     560.0000    total number of electrons
   NUPDOWN=      -1.0000    fix difference up-down

 DOS related values:
   EMIN   =  10.00;   EMAX   =-10.00  energy-range for DOS
   EFERMI =   0.00
   ISMEAR =     2;   SIGMA  =   0.20  broadening in eV -4-tet -1-fermi 0-gaus

 Electronic relaxation 2 (details)
   IALGO  =     68    algorithm
   LDIAG  =      T    sub-space diagonalisation (order eigenvalues)
   LSUBROT=      F    optimize rotation matrix (better conditioning)
   TURBO    =      0    0=normal 1=particle mesh
   IRESTART =      0    0=no restart 2=restart with 2 vectors
   NREBOOT  =      0    no. of reboots
   NMIN     =      0    reboot dimension
   EREF     =   0.00    reference energy to select bands
   IMIX   =      4    mixing-type and parameters
     AMIX     =   0.40;   BMIX     =  1.00
     AMIX_MAG =   1.60;   BMIX_MAG =  1.00
     AMIN     =   0.10
     WC   =   100.;   INIMIX=   1;  MIXPRE=   1;  MAXMIX= -45

 Intra band minimization:
   WEIMIN = 0.0000     energy-eigenvalue tresh-hold
   EBREAK =  0.74E-07  absolut break condition
   DEPER  =   0.30     relativ break condition  

   TIME   =   0.40     timestep for ELM

  volume/ion in A,a.u.               =     473.68      3196.58
  Fermi-wavevector in a.u.,A,eV,Ry     =   0.449797  0.849992  2.752691  0.202317
  Thomas-Fermi vector in A             =   1.430086
 
 Write flags
   LWAVE        =      F    write WAVECAR
   LDOWNSAMPLE  =      F    k-point downsampling of WAVECAR
   LCHARG       =      F    write CHGCAR
   LVTOT        =      F    write LOCPOT, total local potential
   LVHAR        =      F    write LOCPOT, Hartree potential only
   LELF         =      F    write electronic localiz. function (ELF)
   LORBIT       =      0    0 simple, 1 ext, 2 COOP (PROOUT), +10 PAW based schemes


 Dipole corrections
   LMONO  =      F    monopole corrections only (constant potential shift)
   LDIPOL =      F    correct potential (dipole corrections)
   IDIPOL =      0    1-x, 2-y, 3-z, 4-all directions 
   EPSILON=  1.0000000 bulk dielectric constant

 Exchange correlation treatment:
   GGA     =    RP    GGA type
   LEXCH   =     9    internal setting for exchange type
   VOSKOWN=      0    Vosko Wilk Nusair interpolation
   LHFCALC =     F    Hartree Fock is set to
   LHFONE  =     F    Hartree Fock one center treatment
   AEXX    =    0.0000 exact exchange contribution

 Linear response parameters
   LEPSILON=     F    determine dielectric tensor
   LRPA    =     F    only Hartree local field effects (RPA)
   LNABLA  =     F    use nabla operator in PAW spheres
   LVEL    =     F    velocity operator in full k-point grid
   LINTERFAST=   F  fast interpolation
   KINTER  =     0    interpolate to denser k-point grid
   CSHIFT  =0.1000    complex shift for real part using Kramers Kronig
   OMEGAMAX=  -1.0    maximum frequency
   DEG_THRESHOLD= 0.2000000E-02 threshold for treating states as degnerate
   RTIME   =   -0.100 relaxation time in fs
  (WPLASMAI=    0.000 imaginary part of plasma frequency in eV, 0.658/RTIME)
   DFIELD  = 0.0000000 0.0000000 0.0000000 field for delta impulse in time
 
 Orbital magnetization related:
   ORBITALMAG=     F  switch on orbital magnetization
   LCHIMAG   =     F  perturbation theory with respect to B field
   DQ        =  0.001000  dq finite difference perturbation B field
   LLRAUG    =     F  two centre corrections for induced B field



--------------------------------------------------------------------------------------------------------


 Static calculation
 charge density and potential will be updated during run
 non-spin polarized calculation
 RMM-DIIS sequential band-by-band and
  variant of blocked Davidson during initial phase
 perform sub-space diagonalisation
    before iterative eigenvector-optimisation
 modified Broyden-mixing scheme, WC =      100.0
 initial mixing is a Kerker type mixing with AMIX =  0.4000 and BMIX =      1.0000
 Hartree-type preconditioning will be used
 using additional bands           56
 real space projection scheme for non local part
 use partial core corrections
 calculate Harris-corrections to forces 
   (improved forces if not selfconsistent)
 use gradient corrections 
 use of overlap-Matrix (Vanderbilt PP)
 Methfessel and Paxton  Order N= 2 SIGMA  =   0.20


--------------------------------------------------------------------------------------------------------


  energy-cutoff  :      400.00
  volume of cell :    27000.00
      direct lattice vectors                 reciprocal lattice vectors
    30.000000000  0.000000000  0.000000000     0.033333333  0.000000000  0.000000000
     0.000000000 30.000000000  0.000000000     0.000000000  0.033333333  0.000000000
     0.000000000  0.000000000 30.000000000     0.000000000  0.000000000  0.033333333

  length of vectors
    30.000000000 30.000000000 30.000000000     0.033333333  0.033333333  0.033333333


 
 k-points in units of 2pi/SCALE and weight: K-points                                
   0.00000000  0.00000000  0.00000000       1.000
 
 k-points in reciprocal lattice and weights: K-points                                
   0.00000000  0.00000000  0.00000000       1.000
 
 position of ions in fractional coordinates (direct lattice) 
   0.44576020  0.32826710  0.41691983
   0.67173288  0.55423978  0.41691983
   0.55423980  0.32826710  0.41691983
   0.32826712  0.55423978  0.41691983
   0.50000000  0.38250690  0.34021317
   0.50000000  0.38250690  0.65978680
   0.50000000  0.27609440  0.50000000
   0.27609443  0.49999998  0.50000000
   0.72390557  0.49999998  0.50000000
   0.50000000  0.72390555  0.50000000
   0.61195280  0.38804720  0.34167483
   0.61195280  0.38804720  0.65832513
   0.38804722  0.61195278  0.34167483
   0.38804722  0.61195278  0.65832513
   0.38804720  0.38804720  0.34167483
   0.38804720  0.38804720  0.65832513
   0.61195278  0.61195278  0.34167483
   0.61195278  0.61195278  0.65832513
   0.44576020  0.32826710  0.58308023
   0.67173288  0.55423978  0.58308023
   0.55791699  0.44208301  0.41809300
   0.32826705  0.44576024  0.41691983
   0.55423973  0.67173293  0.41691983
   0.55423980  0.32826710  0.58308023
   0.32826712  0.55423978  0.58308023
   0.67173295  0.44576024  0.41691983
   0.44576027  0.67173293  0.41691983
   0.44208301  0.44208301  0.41809300
   0.50000000  0.38416601  0.50000000
   0.61749315  0.50000005  0.34021317
   0.61749315  0.50000005  0.65978680
   0.38250685  0.50000005  0.34021317
   0.38250685  0.50000005  0.65978680
   0.38317830  0.38317830  0.50000000
   0.61682172  0.61682172  0.50000000
   0.61682170  0.38317830  0.50000000
   0.38317828  0.61682172  0.50000000
   0.50000000  0.50000000  0.33478917
   0.50000000  0.50000000  0.66521087
   0.32826705  0.44576024  0.58308023
   0.55423973  0.67173293  0.58308023
   0.55791699  0.44208301  0.58190703
   0.44208298  0.55791702  0.41809300
   0.44208301  0.44208301  0.58190703
   0.67173295  0.44576024  0.58308023
   0.44576027  0.67173293  0.58308023
   0.55791702  0.55791702  0.41809300
   0.38416599  0.50000002  0.50000000
   0.61583401  0.50000002  0.50000000
   0.50000000  0.61749319  0.34021317
   0.50000000  0.61749319  0.65978680
   0.50000000  0.50000000  0.50000000
   0.44208298  0.55791702  0.58190703
   0.55791702  0.55791702  0.58190703
   0.50000000  0.61583404  0.50000000
   0.27142900  0.56460280  0.35664647
   0.24045107  0.57335833  0.33721793
 
 position of ions in cartesian coordinates  (Angst):
  13.37280588  9.84801292 12.50759500
  20.15198637 16.62719342 12.50759500
  16.62719412  9.84801292 12.50759500
   9.84801363 16.62719342 12.50759500
  15.00000000 11.47520705 10.20639500
  15.00000000 11.47520705 19.79360400
  15.00000000  8.28283206 15.00000000
   8.28283277 14.99999929 15.00000000
  21.71716723 14.99999929 15.00000000
  15.00000000 21.71716652 14.99999999
  18.35858397 11.64141603 10.25024500
  18.35858397 11.64141603 19.74975399
  11.64141674 18.35858326 10.25024500
  11.64141674 18.35858326 19.74975400
  11.64141603 11.64141603 10.25024500
  11.64141603 11.64141603 19.74975400
  18.35858326 18.35858326 10.25024500
  18.35858326 18.35858326 19.74975400
  13.37280588  9.84801291 17.49240700
  20.15198638 16.62719341 17.49240700
  16.73750985 13.26249015 12.54279000
   9.84801151 13.37280729 12.50759500
  16.62719200 20.15198779 12.50759500
  16.62719412  9.84801292 17.49240700
   9.84801363 16.62719342 17.49240700
  20.15198849 13.37280729 12.50759500
  13.37280800 20.15198779 12.50759500
  13.26249015 13.26249015 12.54279000
  15.00000000 11.52498029 15.00000000
  18.52479437 15.00000140 10.20639500
  18.52479437 15.00000141 19.79360400
  11.47520562 15.00000141 10.20639501
  11.47520563 15.00000141 19.79360400
  11.49534898 11.49534898 15.00000000
  18.50465172 18.50465172 15.00000000
  18.50465102 11.49534898 15.00000000
  11.49534828 18.50465172 15.00000000
  15.00000000 15.00000000 10.04367500
  15.00000000 15.00000000 19.95632599
   9.84801151 13.37280729 17.49240700
  16.62719200 20.15198779 17.49240700
  16.73750985 13.26249015 17.45721100
  13.26248944 16.73751056 12.54279001
  13.26249015 13.26249015 17.45721100
  20.15198849 13.37280729 17.49240699
  13.37280800 20.15198779 17.49240700
  16.73751056 16.73751056 12.54279000
  11.52497959 15.00000071 15.00000000
  18.47502041 15.00000071 15.00000000
  14.99999999 18.52479579 10.20639500
  15.00000000 18.52479578 19.79360400
  15.00000000 15.00000000 15.00000000
  13.26248944 16.73751057 17.45721101
  16.73751056 16.73751057 17.45721100
  15.00000000 18.47502112 15.00000000
   8.14287000 16.93808400 10.69939400
   7.21353200 17.20075000 10.11653800
 


--------------------------------------------------------------------------------------------------------


 k-point  1 :   0.0000 0.0000 0.0000  plane waves:  490521

 maximum and minimum number of plane-waves per node :    490521   490521

 maximum number of plane-waves:    490521
 maximum index in each direction: 
   IXMAX=   48   IYMAX=   48   IZMAX=   48
   IXMIN=  -48   IYMIN=  -48   IZMIN=  -48


 serial   3D FFT for wavefunctions
 parallel 3D FFT for charge:
    minimum data exchange during FFTs selected (reduces bandwidth)


 total amount of memory used by VASP MPI-rank0  5486941. kBytes
=======================================================================

   base      :      30000. kBytes
   nonlr-proj:      17126. kBytes
   fftplans  :     924480. kBytes
   grid      :    1872000. kBytes
   one-center:        886. kBytes
   wavefun   :    2642449. kBytes
 
     INWAV:  cpu time    0.0001: real time    0.0004
 Broyden mixing: mesh for mixing (old mesh)
   NGX = 97   NGY = 97   NGZ = 97
  (NGX  =300   NGY  =300   NGZ  =300)
  gives a total of 912673 points

 initial charge density was supplied:
 charge density of overlapping atoms calculated
 number of electron     560.0000000 magnetization 
 keeping initial charge density in first step


--------------------------------------------------------------------------------------------------------


 Maximum index for non-local projection operator         1763
 Maximum index for augmentation-charges         5898 (set IRDMAX)


--------------------------------------------------------------------------------------------------------


 First call to EWALD:  gamma=   0.059
 Maximum number of real-space cells 3x 3x 3
 Maximum number of reciprocal cells 3x 3x 3

    FEWALD:  cpu time    0.0147: real time    0.0147


--------------------------------------- Iteration      1(   1)  ---------------------------------------


    POTLOK:  cpu time   13.5944: real time   13.5972
    SETDIJ:  cpu time    0.1203: real time    0.1203
     EDDAV:  cpu time  354.2718: real time  354.3260
       DOS:  cpu time    0.0012: real time    0.0012
    --------------------------------------------
      LOOP:  cpu time  367.9878: real time  368.0448

 eigenvalue-minimisations  :   688
 total energy-change (2. order) : 0.4382859E+04  (-0.1004840E+05)
 number of electron     560.0000000 magnetization 
 augmentation part      560.0000000 magnetization 

 Free energy of the ion-electron system (eV)
  ---------------------------------------------------
  alpha Z        PSCENC =        75.25431677
  Ewald energy   TEWEN  =    137422.87026597
  -Hartree energ DENC   =   -180790.16477882
  -exchange      EXHF   =         0.00000000
  -V(xc)+E(xc)   XCENC  =     -1703.87019664
  PAW double counting   =     44873.02882129   -41398.84523641
  entropy T*S    EENTRO =         0.02376193
  eigenvalues    EBANDS =       818.05664129
  atomic energy  EATOM  =     45086.50549395
  Solvation  Ediel_sol  =         0.00000000
  ---------------------------------------------------
  free energy    TOTEN  =      4382.85908934 eV

  energy without entropy =     4382.83532741  energy(sigma->0) =     4382.85314885


--------------------------------------------------------------------------------------------------------




--------------------------------------- Iteration      1(   2)  ---------------------------------------


     EDDAV:  cpu time  581.2467: real time  581.2620
       DOS:  cpu time    0.0013: real time    0.0013
    --------------------------------------------
      LOOP:  cpu time  581.2480: real time  581.2632

 eigenvalue-minimisations  :  1224
 total energy-change (2. order) :-0.2370973E+04  (-0.2134933E+04)
 number of electron     560.0000000 magnetization 
 augmentation part      560.0000000 magnetization 

 Free energy of the ion-electron system (eV)
  ---------------------------------------------------
  alpha Z        PSCENC =        75.25431677
  Ewald energy   TEWEN  =    137422.87026597
  -Hartree energ DENC   =   -180790.16477882
  -exchange      EXHF   =         0.00000000
  -V(xc)+E(xc)   XCENC  =     -1703.87019664
  PAW double counting   =     44873.02882129   -41398.84523641
  entropy T*S    EENTRO =         0.02203906
  eigenvalues    EBANDS =     -1552.91430506
  atomic energy  EATOM  =     45086.50549395
  Solvation  Ediel_sol  =         0.00000000
  ---------------------------------------------------
  free energy    TOTEN  =      2011.88642011 eV

  energy without entropy =     2011.86438105  energy(sigma->0) =     2011.88091034


--------------------------------------------------------------------------------------------------------




--------------------------------------- Iteration      1(   3)  ---------------------------------------


     EDDAV:  cpu time  494.9414: real time  494.9502
       DOS:  cpu time    0.0011: real time    0.0011
    --------------------------------------------
      LOOP:  cpu time  494.9425: real time  494.9513

 eigenvalue-minimisations  :  1000
 total energy-change (2. order) :-0.1780122E+04  (-0.1674649E+04)
 number of electron     560.0000000 magnetization 
 augmentation part      560.0000000 magnetization 

 Free energy of the ion-electron system (eV)
  ---------------------------------------------------
  alpha Z        PSCENC =        75.25431677
  Ewald energy   TEWEN  =    137422.87026597
  -Hartree energ DENC   =   -180790.16477882
  -exchange      EXHF   =         0.00000000
  -V(xc)+E(xc)   XCENC  =     -1703.87019664
  PAW double counting   =     44873.02882129   -41398.84523641
  entropy T*S    EENTRO =         0.05339809
  eigenvalues    EBANDS =     -3333.06784550
  atomic energy  EATOM  =     45086.50549395
  Solvation  Ediel_sol  =         0.00000000
  ---------------------------------------------------
  free energy    TOTEN  =       231.76423870 eV

  energy without entropy =      231.71084061  energy(sigma->0) =      231.75088918


--------------------------------------------------------------------------------------------------------




--------------------------------------- Iteration      1(   4)  ---------------------------------------


     EDDAV:  cpu time  425.6914: real time  425.6995
       DOS:  cpu time    0.0012: real time    0.0012
    --------------------------------------------
      LOOP:  cpu time  425.6926: real time  425.7006

 eigenvalue-minimisations  :   832
 total energy-change (2. order) :-0.3670857E+03  (-0.3118044E+03)
 number of electron     560.0000000 magnetization 
 augmentation part      560.0000000 magnetization 

 Free energy of the ion-electron system (eV)
  ---------------------------------------------------
  alpha Z        PSCENC =        75.25431677
  Ewald energy   TEWEN  =    137422.87026597
  -Hartree energ DENC   =   -180790.16477882
  -exchange      EXHF   =         0.00000000
  -V(xc)+E(xc)   XCENC  =     -1703.87019664
  PAW double counting   =     44873.02882129   -41398.84523641
  entropy T*S    EENTRO =         0.03706169
  eigenvalues    EBANDS =     -3700.13719177
  atomic energy  EATOM  =     45086.50549395
  Solvation  Ediel_sol  =         0.00000000
  ---------------------------------------------------
  free energy    TOTEN  =      -135.32144397 eV

  energy without entropy =     -135.35850566  energy(sigma->0) =     -135.33070939


--------------------------------------------------------------------------------------------------------




--------------------------------------- Iteration      1(   5)  ---------------------------------------


     EDDAV:  cpu time  512.6744: real time  512.6814
       DOS:  cpu time    0.0014: real time    0.0014
    CHARGE:  cpu time   25.8550: real time   25.8548
    MIXING:  cpu time    0.4649: real time    0.4649
    --------------------------------------------
      LOOP:  cpu time  538.9958: real time  539.0026

 eigenvalue-minimisations  :  1040
 total energy-change (2. order) :-0.4374022E+02  (-0.3610938E+02)
 number of electron     559.9999946 magnetization 
 augmentation part      245.2648006 magnetization 

 Broyden mixing:
  rms(total) = 0.13900E+01    rms(broyden)= 0.13890E+01
  rms(prec ) = 0.14956E+01
  weight for this iteration     100.00

 Free energy of the ion-electron system (eV)
  ---------------------------------------------------
  alpha Z        PSCENC =        75.25431677
  Ewald energy   TEWEN  =    137422.87026597
  -Hartree energ DENC   =   -180790.16477882
  -exchange      EXHF   =         0.00000000
  -V(xc)+E(xc)   XCENC  =     -1703.87019664
  PAW double counting   =     44873.02882129   -41398.84523641
  entropy T*S    EENTRO =         0.52350455
  eigenvalues    EBANDS =     -3744.36385222
  atomic energy  EATOM  =     45086.50549395
  Solvation  Ediel_sol  =         0.00000000
  ---------------------------------------------------
  free energy    TOTEN  =      -179.06166156 eV

  energy without entropy =     -179.58516610  energy(sigma->0) =     -179.19253769


--------------------------------------------------------------------------------------------------------




--------------------------------------- Iteration      1(   6)  ---------------------------------------


    POTLOK:  cpu time   13.4497: real time   13.4527
    SETDIJ:  cpu time    0.1271: real time    0.1271
    EDDIAG:  cpu time   67.6854: real time   67.6852
  RMM-DIIS:  cpu time  190.1919: real time  190.1950
    ORTHCH:  cpu time   14.0516: real time   14.0516
       DOS:  cpu time    0.0014: real time    0.0014
    CHARGE:  cpu time   25.9450: real time   25.9449
    MIXING:  cpu time    0.4802: real time    0.4802
    --------------------------------------------
      LOOP:  cpu time  311.9324: real time  311.9381

 eigenvalue-minimisations  :   725
 total energy-change (2. order) : 0.7459495E+00  (-0.4950423E+01)
 number of electron     559.9999944 magnetization 
 augmentation part      240.7374264 magnetization 

 Broyden mixing:
  rms(total) = 0.23730E+01    rms(broyden)= 0.23728E+01
  rms(prec ) = 0.27749E+01
  weight for this iteration     100.00

 eigenvalues of (default mixing * dielectric matrix)
  average eigenvalue GAMMA=   0.2930
  0.2930

 Free energy of the ion-electron system (eV)
  ---------------------------------------------------
  alpha Z        PSCENC =        75.25431677
  Ewald energy   TEWEN  =    137422.87026597
  -Hartree energ DENC   =   -181204.74051724
  -exchange      EXHF   =         0.00000000
  -V(xc)+E(xc)   XCENC  =     -1697.57598262
  PAW double counting   =     45621.65148148   -42120.17828158
  entropy T*S    EENTRO =        -0.09963878
  eigenvalues    EBANDS =     -3362.00284999
  atomic energy  EATOM  =     45086.50549395
  Solvation  Ediel_sol  =         0.00000000
  ---------------------------------------------------
  free energy    TOTEN  =      -178.31571204 eV

  energy without entropy =     -178.21607326  energy(sigma->0) =     -178.29080234


--------------------------------------------------------------------------------------------------------




--------------------------------------- Iteration      1(   7)  ---------------------------------------


    POTLOK:  cpu time   13.6601: real time   13.6625
    SETDIJ:  cpu time    0.1265: real time    0.1265
    EDDIAG:  cpu time   68.6004: real time   68.6025
  RMM-DIIS:  cpu time  233.2325: real time  233.2333
    ORTHCH:  cpu time   13.8126: real time   13.8125
       DOS:  cpu time    0.0015: real time    0.0015
    CHARGE:  cpu time   25.5422: real time   25.5421
    MIXING:  cpu time    0.4739: real time    0.4739
    --------------------------------------------
      LOOP:  cpu time  355.4498: real time  355.4548

 eigenvalue-minimisations  :   873
 total energy-change (2. order) :-0.2213336E+01  (-0.1715168E+01)
 number of electron     559.9999912 magnetization 
 augmentation part      240.5261231 magnetization 

 Broyden mixing:
  rms(total) = 0.21161E+01    rms(broyden)= 0.21158E+01
  rms(prec ) = 0.25717E+01
  weight for this iteration     100.00

 eigenvalues of (default mixing * dielectric matrix)
  average eigenvalue GAMMA=   0.2998
  0.4569  0.1426

 Free energy of the ion-electron system (eV)
  ---------------------------------------------------
  alpha Z        PSCENC =        75.25431677
  Ewald energy   TEWEN  =    137422.87026597
  -Hartree energ DENC   =   -181275.48628980
  -exchange      EXHF   =         0.00000000
  -V(xc)+E(xc)   XCENC  =     -1697.66827195
  PAW double counting   =     45673.16674007   -42169.34440956
  entropy T*S    EENTRO =        -0.08789089
  eigenvalues    EBANDS =     -3295.73900286
  atomic energy  EATOM  =     45086.50549395
  Solvation  Ediel_sol  =         0.00000000
  ---------------------------------------------------
  free energy    TOTEN  =      -180.52904830 eV

  energy without entropy =     -180.44115741  energy(sigma->0) =     -180.50707558


--------------------------------------------------------------------------------------------------------




--------------------------------------- Iteration      1(   8)  ---------------------------------------


    POTLOK:  cpu time   13.3953: real time   13.3958
    SETDIJ:  cpu time    0.1252: real time    0.1252
    EDDIAG:  cpu time   68.7870: real time   68.7868
  RMM-DIIS:  cpu time  205.6619: real time  205.6714
    ORTHCH:  cpu time   13.9161: real time   13.9160
       DOS:  cpu time    0.0014: real time    0.0014
    CHARGE:  cpu time   25.4592: real time   25.4590
    MIXING:  cpu time    0.5204: real time    0.5204
    --------------------------------------------
      LOOP:  cpu time  327.8665: real time  327.8759

 eigenvalue-minimisations  :   761
 total energy-change (2. order) :-0.2521543E+01  (-0.6648218E+00)
 number of electron     559.9999929 magnetization 
 augmentation part      240.0133653 magnetization 

 Broyden mixing:
  rms(total) = 0.23897E+01    rms(broyden)= 0.23894E+01
  rms(prec ) = 0.28083E+01
  weight for this iteration     100.00

 eigenvalues of (default mixing * dielectric matrix)
  average eigenvalue GAMMA=   0.3096
  0.6546  0.1371  0.1371

 Free energy of the ion-electron system (eV)
  ---------------------------------------------------
  alpha Z        PSCENC =        75.25431677
  Ewald energy   TEWEN  =    137422.87026597
  -Hartree energ DENC   =   -181323.47541116
  -exchange      EXHF   =         0.00000000
  -V(xc)+E(xc)   XCENC  =     -1697.69222269
  PAW double counting   =     45727.67820623   -42221.22048737
  entropy T*S    EENTRO =        -0.18222285
  eigenvalues    EBANDS =     -3252.78853042
  atomic energy  EATOM  =     45086.50549395
  Solvation  Ediel_sol  =         0.00000000
  ---------------------------------------------------
  free energy    TOTEN  =      -183.05059156 eV

  energy without entropy =     -182.86836871  energy(sigma->0) =     -183.00503585


--------------------------------------------------------------------------------------------------------




--------------------------------------- Iteration      1(   9)  ---------------------------------------


    POTLOK:  cpu time   13.4220: real time   13.4225
    SETDIJ:  cpu time    0.1243: real time    0.1243
    EDDIAG:  cpu time   68.6739: real time   68.6740
  RMM-DIIS:  cpu time  194.9592: real time  194.9620
    ORTHCH:  cpu time   13.7807: real time   13.7806
       DOS:  cpu time    0.0014: real time    0.0014
    CHARGE:  cpu time   25.6956: real time   25.6953
    MIXING:  cpu time    0.5436: real time    0.5436
    --------------------------------------------
      LOOP:  cpu time  317.2008: real time  317.2039

 eigenvalue-minimisations  :   727
 total energy-change (2. order) : 0.1785817E+01  (-0.5052699E+00)
 number of electron     559.9999916 magnetization 
 augmentation part      240.8425001 magnetization 

 Broyden mixing:
  rms(total) = 0.23566E+01    rms(broyden)= 0.23563E+01
  rms(prec ) = 0.27217E+01
  weight for this iteration     100.00

 eigenvalues of (default mixing * dielectric matrix)
  average eigenvalue GAMMA=   0.2916
  0.7543  0.1551  0.1551  0.1020

 Free energy of the ion-electron system (eV)
  ---------------------------------------------------
  alpha Z        PSCENC =        75.25431677
  Ewald energy   TEWEN  =    137422.87026597
  -Hartree energ DENC   =   -181348.23504712
  -exchange      EXHF   =         0.00000000
  -V(xc)+E(xc)   XCENC  =     -1697.70139551
  PAW double counting   =     45787.51433784   -42278.21515298
  entropy T*S    EENTRO =        -0.04486492
  eigenvalues    EBANDS =     -3229.21272894
  atomic energy  EATOM  =     45086.50549395
  Solvation  Ediel_sol  =         0.00000000
  ---------------------------------------------------
  free energy    TOTEN  =      -181.26477494 eV

  energy without entropy =     -181.21991002  energy(sigma->0) =     -181.25355871


--------------------------------------------------------------------------------------------------------




--------------------------------------- Iteration      1(  10)  ---------------------------------------


    POTLOK:  cpu time   13.4711: real time   13.4717
    SETDIJ:  cpu time    0.1215: real time    0.1215
    EDDIAG:  cpu time   68.8110: real time   68.8165
  RMM-DIIS:  cpu time  197.9852: real time  197.9854
    ORTHCH:  cpu time   13.5971: real time   13.5969
       DOS:  cpu time    0.0015: real time    0.0015
    CHARGE:  cpu time   25.9659: real time   25.9656
    MIXING:  cpu time    0.5968: real time    0.5968
    --------------------------------------------
      LOOP:  cpu time  320.5500: real time  320.5560

 eigenvalue-minimisations  :   737
 total energy-change (2. order) : 0.2349748E+01  (-0.2554387E+00)
 number of electron     559.9999930 magnetization 
 augmentation part      241.3123391 magnetization 

 Broyden mixing:
  rms(total) = 0.18357E+01    rms(broyden)= 0.18354E+01
  rms(prec ) = 0.21168E+01
  weight for this iteration     100.00

 eigenvalues of (default mixing * dielectric matrix)
  average eigenvalue GAMMA=   0.2788
  0.8288  0.1763  0.1763  0.1198  0.0926

 Free energy of the ion-electron system (eV)
  ---------------------------------------------------
  alpha Z        PSCENC =        75.25431677
  Ewald energy   TEWEN  =    137422.87026597
  -Hartree energ DENC   =   -181372.97505708
  -exchange      EXHF   =         0.00000000
  -V(xc)+E(xc)   XCENC  =     -1697.58927465
  PAW double counting   =     45826.01273617   -42314.94062412
  entropy T*S    EENTRO =        -0.16307193
  eigenvalues    EBANDS =     -3203.88981158
  atomic energy  EATOM  =     45086.50549395
  Solvation  Ediel_sol  =         0.00000000
  ---------------------------------------------------
  free energy    TOTEN  =      -178.91502650 eV

  energy without entropy =     -178.75195457  energy(sigma->0) =     -178.87425852


--------------------------------------------------------------------------------------------------------




--------------------------------------- Iteration      1(  11)  ---------------------------------------


    POTLOK:  cpu time   13.2457: real time   13.2465
    SETDIJ:  cpu time    0.1250: real time    0.1250
    EDDIAG:  cpu time   68.6760: real time   68.6757
  RMM-DIIS:  cpu time  195.2122: real time  195.2144
    ORTHCH:  cpu time   13.6354: real time   13.6355
       DOS:  cpu time    0.0015: real time    0.0015
    CHARGE:  cpu time   26.0746: real time   26.0747
    MIXING:  cpu time    0.5802: real time    0.5802
    --------------------------------------------
      LOOP:  cpu time  317.5505: real time  317.5534

 eigenvalue-minimisations  :   726
 total energy-change (2. order) : 0.1654944E+01  (-0.1780184E+00)
 number of electron     559.9999927 magnetization 
 augmentation part      241.4178228 magnetization 

 Broyden mixing:
  rms(total) = 0.16335E+01    rms(broyden)= 0.16332E+01
  rms(prec ) = 0.19172E+01
  weight for this iteration     100.00

 eigenvalues of (default mixing * dielectric matrix)
  average eigenvalue GAMMA=   0.2701
  0.8879  0.2154  0.2154  0.1130  0.1130  0.0757

 Free energy of the ion-electron system (eV)
  ---------------------------------------------------
  alpha Z        PSCENC =        75.25431677
  Ewald energy   TEWEN  =    137422.87026597
  -Hartree energ DENC   =   -181399.82513384
  -exchange      EXHF   =         0.00000000
  -V(xc)+E(xc)   XCENC  =     -1697.40729957
  PAW double counting   =     45861.31629521   -42348.53243595
  entropy T*S    EENTRO =        -0.09380696
  eigenvalues    EBANDS =     -3177.34777812
  atomic energy  EATOM  =     45086.50549395
  Solvation  Ediel_sol  =         0.00000000
  ---------------------------------------------------
  free energy    TOTEN  =      -177.26008255 eV

  energy without entropy =     -177.16627558  energy(sigma->0) =     -177.23663081


--------------------------------------------------------------------------------------------------------




--------------------------------------- Iteration      1(  12)  ---------------------------------------


    POTLOK:  cpu time   13.1087: real time   13.1095
    SETDIJ:  cpu time    0.1212: real time    0.1212
    EDDIAG:  cpu time   69.3865: real time   69.3876
  RMM-DIIS:  cpu time  195.4503: real time  195.4591
    ORTHCH:  cpu time   13.6795: real time   13.6796
       DOS:  cpu time    0.0015: real time    0.0015
    CHARGE:  cpu time   25.9854: real time   25.9855
    MIXING:  cpu time    0.6504: real time    0.6504
    --------------------------------------------
      LOOP:  cpu time  318.3834: real time  318.3944

 eigenvalue-minimisations  :   726
 total energy-change (2. order) : 0.3639833E+00  (-0.1166346E+00)
 number of electron     559.9999933 magnetization 
 augmentation part      241.5184018 magnetization 

 Broyden mixing:
  rms(total) = 0.19153E+01    rms(broyden)= 0.19150E+01
  rms(prec ) = 0.23427E+01
  weight for this iteration     100.00

 eigenvalues of (default mixing * dielectric matrix)
  average eigenvalue GAMMA=   0.2586
  0.9269  0.2500  0.2500  0.1231  0.1231  0.0807  0.0566

 Free energy of the ion-electron system (eV)
  ---------------------------------------------------
  alpha Z        PSCENC =        75.25431677
  Ewald energy   TEWEN  =    137422.87026597
  -Hartree energ DENC   =   -181415.39885666
  -exchange      EXHF   =         0.00000000
  -V(xc)+E(xc)   XCENC  =     -1697.20922564
  PAW double counting   =     45888.50448927   -42374.30715299
  entropy T*S    EENTRO =        -0.01526236
  eigenvalues    EBANDS =     -3163.10016753
  atomic energy  EATOM  =     45086.50549395
  Solvation  Ediel_sol  =         0.00000000
  ---------------------------------------------------
  free energy    TOTEN  =      -176.89609921 eV

  energy without entropy =     -176.88083685  energy(sigma->0) =     -176.89228362


--------------------------------------------------------------------------------------------------------




--------------------------------------- Iteration      1(  13)  ---------------------------------------


    POTLOK:  cpu time   13.3435: real time   13.3444
    SETDIJ:  cpu time    0.1211: real time    0.1211
    EDDIAG:  cpu time   68.9000: real time   68.9010
  RMM-DIIS:  cpu time  194.3724: real time  194.3755
    ORTHCH:  cpu time   13.7178: real time   13.7178
       DOS:  cpu time    0.0015: real time    0.0015
    CHARGE:  cpu time   26.0939: real time   26.0940
    MIXING:  cpu time    0.6849: real time    0.6849
    --------------------------------------------
      LOOP:  cpu time  317.2351: real time  317.2402

 eigenvalue-minimisations  :   726
 total energy-change (2. order) : 0.7030772E+00  (-0.7555805E-01)
 number of electron     559.9999942 magnetization 
 augmentation part      241.5424649 magnetization 

 Broyden mixing:
  rms(total) = 0.14086E+01    rms(broyden)= 0.14083E+01
  rms(prec ) = 0.16415E+01
  weight for this iteration     100.00

 eigenvalues of (default mixing * dielectric matrix)
  average eigenvalue GAMMA=   0.2735
  1.0192  0.3329  0.3329  0.1511  0.1071  0.1071  0.0900  0.0474

 Free energy of the ion-electron system (eV)
  ---------------------------------------------------
  alpha Z        PSCENC =        75.25431677
  Ewald energy   TEWEN  =    137422.87026597
  -Hartree energ DENC   =   -181428.51307021
  -exchange      EXHF   =         0.00000000
  -V(xc)+E(xc)   XCENC  =     -1697.02351949
  PAW double counting   =     45909.09779558   -42393.82276657
  entropy T*S    EENTRO =        -0.10290169
  eigenvalues    EBANDS =     -3150.45863636
  atomic energy  EATOM  =     45086.50549395
  Solvation  Ediel_sol  =         0.00000000
  ---------------------------------------------------
  free energy    TOTEN  =      -176.19302206 eV

  energy without entropy =     -176.09012036  energy(sigma->0) =     -176.16729663


--------------------------------------------------------------------------------------------------------




--------------------------------------- Iteration      1(  14)  ---------------------------------------


    POTLOK:  cpu time   13.4539: real time   13.4547
    SETDIJ:  cpu time    0.1276: real time    0.1276
    EDDIAG:  cpu time   69.1738: real time   69.1803
  RMM-DIIS:  cpu time  194.0231: real time  194.0484
    ORTHCH:  cpu time   13.8709: real time   13.8723
       DOS:  cpu time    0.0015: real time    0.0015
    CHARGE:  cpu time   26.3521: real time   26.3548
    MIXING:  cpu time    0.7464: real time    0.7464
    --------------------------------------------
      LOOP:  cpu time  317.7493: real time  317.7861

 eigenvalue-minimisations  :   717
 total energy-change (2. order) : 0.2500819E-01  (-0.1233695E+00)
 number of electron     559.9999918 magnetization 
 augmentation part      241.3343143 magnetization 

 Broyden mixing:
  rms(total) = 0.17253E+01    rms(broyden)= 0.17251E+01
  rms(prec ) = 0.19983E+01
  weight for this iteration     100.00

 eigenvalues of (default mixing * dielectric matrix)
  average eigenvalue GAMMA=   0.2812
  1.1409  0.5033  0.2858  0.1324  0.1324  0.1047  0.0925  0.0925  0.0464

 Free energy of the ion-electron system (eV)
  ---------------------------------------------------
  alpha Z        PSCENC =        75.25431677
  Ewald energy   TEWEN  =    137422.87026597
  -Hartree energ DENC   =   -181467.93919178
  -exchange      EXHF   =         0.00000000
  -V(xc)+E(xc)   XCENC  =     -1696.47860468
  PAW double counting   =     45962.36462459   -42444.18840812
  entropy T*S    EENTRO =        -0.06514227
  eigenvalues    EBANDS =     -3114.49136829
  atomic energy  EATOM  =     45086.50549395
  Solvation  Ediel_sol  =         0.00000000
  ---------------------------------------------------
  free energy    TOTEN  =      -176.16801386 eV

  energy without entropy =     -176.10287159  energy(sigma->0) =     -176.15172829


--------------------------------------------------------------------------------------------------------




--------------------------------------- Iteration      1(  15)  ---------------------------------------


    POTLOK:  cpu time   13.4429: real time   13.4436
    SETDIJ:  cpu time    0.1219: real time    0.1219
    EDDIAG:  cpu time   69.2114: real time   69.2147
  RMM-DIIS:  cpu time  193.1210: real time  193.1212
    ORTHCH:  cpu time   13.8857: real time   13.8856
       DOS:  cpu time    0.0015: real time    0.0015
    CHARGE:  cpu time   26.6306: real time   26.6305
    MIXING:  cpu time    0.8163: real time    0.8163
    --------------------------------------------
      LOOP:  cpu time  317.2313: real time  317.2352

 eigenvalue-minimisations  :   720
 total energy-change (2. order) : 0.6083282E-01  (-0.9707409E-01)
 number of electron     559.9999918 magnetization 
 augmentation part      241.1393089 magnetization 

 Broyden mixing:
  rms(total) = 0.16967E+01    rms(broyden)= 0.16965E+01
  rms(prec ) = 0.20178E+01
  weight for this iteration     100.00

 eigenvalues of (default mixing * dielectric matrix)
  average eigenvalue GAMMA=   0.2947
  1.2836  0.6961  0.2299  0.1689  0.1689  0.0979  0.0979  0.0889  0.0698  0.0452

 Free energy of the ion-electron system (eV)
  ---------------------------------------------------
  alpha Z        PSCENC =        75.25431677
  Ewald energy   TEWEN  =    137422.87026597
  -Hartree energ DENC   =   -181501.67162683
  -exchange      EXHF   =         0.00000000
  -V(xc)+E(xc)   XCENC  =     -1696.02131903
  PAW double counting   =     46006.16523169   -42485.58461284
  entropy T*S    EENTRO =        -0.06596280
  eigenvalues    EBANDS =     -3083.55896793
  atomic energy  EATOM  =     45086.50549395
  Solvation  Ediel_sol  =         0.00000000
  ---------------------------------------------------
  free energy    TOTEN  =      -176.10718104 eV

  energy without entropy =     -176.04121824  energy(sigma->0) =     -176.09069034


--------------------------------------------------------------------------------------------------------




--------------------------------------- Iteration      1(  16)  ---------------------------------------


    POTLOK:  cpu time   13.4293: real time   13.4299
    SETDIJ:  cpu time    0.1248: real time    0.1248
    EDDIAG:  cpu time   69.2523: real time   69.2527
  RMM-DIIS:  cpu time  193.0461: real time  193.0492
    ORTHCH:  cpu time   13.7393: real time   13.7392
       DOS:  cpu time    0.0014: real time    0.0014
    CHARGE:  cpu time   26.3322: real time   26.3321
    MIXING:  cpu time    0.8427: real time    0.8427
    --------------------------------------------
      LOOP:  cpu time  316.7681: real time  316.7720

 eigenvalue-minimisations  :   722
 total energy-change (2. order) : 0.6004935E-01  (-0.7856282E-01)
 number of electron     559.9999944 magnetization 
 augmentation part      241.0028253 magnetization 

 Broyden mixing:
  rms(total) = 0.18539E+01    rms(broyden)= 0.18536E+01
  rms(prec ) = 0.22234E+01
  weight for this iteration     100.00

 eigenvalues of (default mixing * dielectric matrix)
  average eigenvalue GAMMA=   0.2911
  1.3649  0.7694  0.2170  0.1939  0.1939  0.0972  0.0972  0.0984  0.0731  0.0518
  0.0457

 Free energy of the ion-electron system (eV)
  ---------------------------------------------------
  alpha Z        PSCENC =        75.25431677
  Ewald energy   TEWEN  =    137422.87026597
  -Hartree energ DENC   =   -181534.08801040
  -exchange      EXHF   =         0.00000000
  -V(xc)+E(xc)   XCENC  =     -1695.59238218
  PAW double counting   =     46045.31056301   -42522.55711161
  entropy T*S    EENTRO =        -0.00540882
  eigenvalues    EBANDS =     -3053.74485839
  atomic energy  EATOM  =     45086.50549395
  Solvation  Ediel_sol  =         0.00000000
  ---------------------------------------------------
  free energy    TOTEN  =      -176.04713169 eV

  energy without entropy =     -176.04172287  energy(sigma->0) =     -176.04577949


--------------------------------------------------------------------------------------------------------




--------------------------------------- Iteration      1(  17)  ---------------------------------------


    POTLOK:  cpu time   13.4723: real time   13.4730
    SETDIJ:  cpu time    0.1237: real time    0.1237
    EDDIAG:  cpu time   68.6343: real time   68.6347
  RMM-DIIS:  cpu time  192.0515: real time  192.0515
    ORTHCH:  cpu time   13.7948: real time   13.7947
       DOS:  cpu time    0.0015: real time    0.0015
    CHARGE:  cpu time   26.3338: real time   26.3336
    MIXING:  cpu time    0.9206: real time    0.9206
    --------------------------------------------
      LOOP:  cpu time  315.3324: real time  315.3333

 eigenvalue-minimisations  :   718
 total energy-change (2. order) : 0.8484245E+00  (-0.5429190E-01)
 number of electron     559.9999941 magnetization 
 augmentation part      240.9978066 magnetization 

 Broyden mixing:
  rms(total) = 0.13346E+01    rms(broyden)= 0.13343E+01
  rms(prec ) = 0.15687E+01
  weight for this iteration     100.00

 eigenvalues of (default mixing * dielectric matrix)
  average eigenvalue GAMMA=   0.2969
  1.4992  0.8055  0.2442  0.2442  0.2087  0.1119  0.1119  0.0824  0.0824  0.0817
  0.0469  0.0439

 Free energy of the ion-electron system (eV)
  ---------------------------------------------------
  alpha Z        PSCENC =        75.25431677
  Ewald energy   TEWEN  =    137422.87026597
  -Hartree energ DENC   =   -181552.16355043
  -exchange      EXHF   =         0.00000000
  -V(xc)+E(xc)   XCENC  =     -1695.36448802
  PAW double counting   =     46065.00754386   -42541.08752616
  entropy T*S    EENTRO =        -0.07503676
  eigenvalues    EBANDS =     -3036.14572637
  atomic energy  EATOM  =     45086.50549395
  Solvation  Ediel_sol  =         0.00000000
  ---------------------------------------------------
  free energy    TOTEN  =      -175.19870719 eV

  energy without entropy =     -175.12367043  energy(sigma->0) =     -175.17994800


--------------------------------------------------------------------------------------------------------




--------------------------------------- Iteration      1(  18)  ---------------------------------------


    POTLOK:  cpu time   13.4795: real time   13.4801
    SETDIJ:  cpu time    0.1219: real time    0.1219
    EDDIAG:  cpu time   68.8482: real time   68.8485
  RMM-DIIS:  cpu time  191.1844: real time  191.1857
    ORTHCH:  cpu time   13.9189: real time   13.9189
       DOS:  cpu time    0.0015: real time    0.0015
    CHARGE:  cpu time   26.3203: real time   26.3202
    MIXING:  cpu time    0.9588: real time    0.9588
    --------------------------------------------
      LOOP:  cpu time  314.8335: real time  314.8355

 eigenvalue-minimisations  :   716
 total energy-change (2. order) : 0.2388818E+00  (-0.4935094E-01)
 number of electron     559.9999940 magnetization 
 augmentation part      241.1516100 magnetization 

 Broyden mixing:
  rms(total) = 0.11397E+01    rms(broyden)= 0.11396E+01
  rms(prec ) = 0.13181E+01
  weight for this iteration     100.00

 eigenvalues of (default mixing * dielectric matrix)
  average eigenvalue GAMMA=   0.3041
  1.5443  0.9489  0.3091  0.3091  0.1483  0.1342  0.1342  0.0895  0.0895  0.0788
  0.0788  0.0463  0.0419

 Free energy of the ion-electron system (eV)
  ---------------------------------------------------
  alpha Z        PSCENC =        75.25431677
  Ewald energy   TEWEN  =    137422.87026597
  -Hartree energ DENC   =   -181562.29865449
  -exchange      EXHF   =         0.00000000
  -V(xc)+E(xc)   XCENC  =     -1695.17432674
  PAW double counting   =     46079.56890506   -42554.62688184
  entropy T*S    EENTRO =        -0.06910882
  eigenvalues    EBANDS =     -3026.98983530
  atomic energy  EATOM  =     45086.50549395
  Solvation  Ediel_sol  =         0.00000000
  ---------------------------------------------------
  free energy    TOTEN  =      -174.95982544 eV

  energy without entropy =     -174.89071662  energy(sigma->0) =     -174.94254823


--------------------------------------------------------------------------------------------------------




--------------------------------------- Iteration      1(  19)  ---------------------------------------


    POTLOK:  cpu time   13.4161: real time   13.4168
    SETDIJ:  cpu time    0.1196: real time    0.1196
    EDDIAG:  cpu time   68.6224: real time   68.6221
  RMM-DIIS:  cpu time  187.8334: real time  187.8336
    ORTHCH:  cpu time   14.1000: real time   14.0999
       DOS:  cpu time    0.0015: real time    0.0015
    CHARGE:  cpu time   26.3663: real time   26.3662
    MIXING:  cpu time    1.0188: real time    1.0188
    --------------------------------------------
      LOOP:  cpu time  311.4782: real time  311.4785

 eigenvalue-minimisations  :   706
 total energy-change (2. order) : 0.2521828E+00  (-0.4108735E-01)
 number of electron     559.9999932 magnetization 
 augmentation part      241.1570710 magnetization 

 Broyden mixing:
  rms(total) = 0.96427E+00    rms(broyden)= 0.96404E+00
  rms(prec ) = 0.11039E+01
  weight for this iteration     100.00

 eigenvalues of (default mixing * dielectric matrix)
  average eigenvalue GAMMA=   0.3116
  1.6313  1.0426  0.3609  0.3609  0.1651  0.1651  0.1045  0.1045  0.0942  0.0942
  0.0754  0.0754  0.0462  0.0416

 Free energy of the ion-electron system (eV)
  ---------------------------------------------------
  alpha Z        PSCENC =        75.25431677
  Ewald energy   TEWEN  =    137422.87026597
  -Hartree energ DENC   =   -181577.45241390
  -exchange      EXHF   =         0.00000000
  -V(xc)+E(xc)   XCENC  =     -1694.99122431
  PAW double counting   =     46088.50026128   -42562.64262564
  entropy T*S    EENTRO =        -0.04316202
  eigenvalues    EBANDS =     -3012.70855477
  atomic energy  EATOM  =     45086.50549395
  Solvation  Ediel_sol  =         0.00000000
  ---------------------------------------------------
  free energy    TOTEN  =      -174.70764267 eV

  energy without entropy =     -174.66448065  energy(sigma->0) =     -174.69685217


--------------------------------------------------------------------------------------------------------




--------------------------------------- Iteration      1(  20)  ---------------------------------------


    POTLOK:  cpu time   13.3645: real time   13.3658
    SETDIJ:  cpu time    0.1247: real time    0.1247
    EDDIAG:  cpu time   69.0137: real time   69.0147
  RMM-DIIS:  cpu time  189.3483: real time  189.3483
    ORTHCH:  cpu time   14.0641: real time   14.0640
       DOS:  cpu time    0.0016: real time    0.0016
    CHARGE:  cpu time   26.3297: real time   26.3295
    MIXING:  cpu time    1.0756: real time    1.0756
    --------------------------------------------
      LOOP:  cpu time  313.3222: real time  313.3241

 eigenvalue-minimisations  :   709
 total energy-change (2. order) : 0.1489380E+00  (-0.2747409E-01)
 number of electron     559.9999944 magnetization 
 augmentation part      241.1707464 magnetization 

 Broyden mixing:
  rms(total) = 0.88601E+00    rms(broyden)= 0.88586E+00
  rms(prec ) = 0.10234E+01
  weight for this iteration     100.00

 eigenvalues of (default mixing * dielectric matrix)
  average eigenvalue GAMMA=   0.3118
  1.6601  1.0985  0.3992  0.3992  0.1891  0.1891  0.1142  0.1142  0.0910  0.0910
  0.0951  0.0744  0.0744  0.0462  0.0415

 Free energy of the ion-electron system (eV)
  ---------------------------------------------------
  alpha Z        PSCENC =        75.25431677
  Ewald energy   TEWEN  =    137422.87026597
  -Hartree energ DENC   =   -181594.94772089
  -exchange      EXHF   =         0.00000000
  -V(xc)+E(xc)   XCENC  =     -1694.83815205
  PAW double counting   =     46095.92920920   -42569.16171395
  entropy T*S    EENTRO =        -0.04031355
  eigenvalues    EBANDS =     -2996.13009013
  atomic energy  EATOM  =     45086.50549395
  Solvation  Ediel_sol  =         0.00000000
  ---------------------------------------------------
  free energy    TOTEN  =      -174.55870467 eV

  energy without entropy =     -174.51839112  energy(sigma->0) =     -174.54862628


--------------------------------------------------------------------------------------------------------




--------------------------------------- Iteration      1(  21)  ---------------------------------------


    POTLOK:  cpu time   13.4347: real time   13.4351
    SETDIJ:  cpu time    0.1211: real time    0.1211
    EDDIAG:  cpu time   68.7018: real time   68.7018
  RMM-DIIS:  cpu time  188.1575: real time  188.1594
    ORTHCH:  cpu time   14.0440: real time   14.0439
       DOS:  cpu time    0.0015: real time    0.0015
    CHARGE:  cpu time   26.3232: real time   26.3231
    MIXING:  cpu time    1.1242: real time    1.1242
    --------------------------------------------
      LOOP:  cpu time  311.9081: real time  311.9102

 eigenvalue-minimisations  :   706
 total energy-change (2. order) : 0.1349413E+00  (-0.1532444E-01)
 number of electron     559.9999937 magnetization 
 augmentation part      241.1715280 magnetization 

 Broyden mixing:
  rms(total) = 0.78253E+00    rms(broyden)= 0.78243E+00
  rms(prec ) = 0.90196E+00
  weight for this iteration     100.00

 eigenvalues of (default mixing * dielectric matrix)
  average eigenvalue GAMMA=   0.3207
  1.8390  1.0729  0.4675  0.4675  0.2134  0.2134  0.1261  0.1261  0.0918  0.0918
  0.1039  0.0834  0.0733  0.0733  0.0462  0.0415

 Free energy of the ion-electron system (eV)
  ---------------------------------------------------
  alpha Z        PSCENC =        75.25431677
  Ewald energy   TEWEN  =    137422.87026597
  -Hartree energ DENC   =   -181606.03682680
  -exchange      EXHF   =         0.00000000
  -V(xc)+E(xc)   XCENC  =     -1694.75311128
  PAW double counting   =     46097.08935365   -42569.85721541
  entropy T*S    EENTRO =        -0.06646023
  eigenvalues    EBANDS =     -2985.42958001
  atomic energy  EATOM  =     45086.50549395
  Solvation  Ediel_sol  =         0.00000000
  ---------------------------------------------------
  free energy    TOTEN  =      -174.42376338 eV

  energy without entropy =     -174.35730315  energy(sigma->0) =     -174.40714832


--------------------------------------------------------------------------------------------------------




--------------------------------------- Iteration      1(  22)  ---------------------------------------


    POTLOK:  cpu time   13.4714: real time   13.4720
    SETDIJ:  cpu time    0.1279: real time    0.1279
    EDDIAG:  cpu time   68.8462: real time   68.8533
  RMM-DIIS:  cpu time  191.0192: real time  191.0219
    ORTHCH:  cpu time   14.1632: real time   14.1631
       DOS:  cpu time    0.0015: real time    0.0015
    CHARGE:  cpu time   26.2606: real time   26.2604
    MIXING:  cpu time    1.2397: real time    1.2397
    --------------------------------------------
      LOOP:  cpu time  315.1297: real time  315.1399

 eigenvalue-minimisations  :   712
 total energy-change (2. order) : 0.6042249E-01  (-0.1759077E-01)
 number of electron     559.9999936 magnetization 
 augmentation part      241.1761300 magnetization 

 Broyden mixing:
  rms(total) = 0.65214E+00    rms(broyden)= 0.65194E+00
  rms(prec ) = 0.75705E+00
  weight for this iteration     100.00

 eigenvalues of (default mixing * dielectric matrix)
  average eigenvalue GAMMA=   0.3301
  1.9529  1.1744  0.4942  0.4942  0.2805  0.1890  0.1890  0.1262  0.1262  0.0939
  0.0939  0.0800  0.0800  0.0785  0.0703  0.0462  0.0415

 Free energy of the ion-electron system (eV)
  ---------------------------------------------------
  alpha Z        PSCENC =        75.25431677
  Ewald energy   TEWEN  =    137422.87026597
  -Hartree energ DENC   =   -181622.08339525
  -exchange      EXHF   =         0.00000000
  -V(xc)+E(xc)   XCENC  =     -1694.57934955
  PAW double counting   =     46101.32698573   -42573.26538535
  entropy T*S    EENTRO =        -0.09684898
  eigenvalues    EBANDS =     -2970.29542418
  atomic energy  EATOM  =     45086.50549395
  Solvation  Ediel_sol  =         0.00000000
  ---------------------------------------------------
  free energy    TOTEN  =      -174.36334089 eV

  energy without entropy =     -174.26649191  energy(sigma->0) =     -174.33912864


--------------------------------------------------------------------------------------------------------




--------------------------------------- Iteration      1(  23)  ---------------------------------------


    POTLOK:  cpu time   13.3404: real time   13.3412
    SETDIJ:  cpu time    0.1261: real time    0.1261
    EDDIAG:  cpu time   69.0332: real time   69.0330
  RMM-DIIS:  cpu time  186.1396: real time  186.1412
    ORTHCH:  cpu time   14.0612: real time   14.0610
       DOS:  cpu time    0.0016: real time    0.0016
    CHARGE:  cpu time   26.3835: real time   26.3832
    MIXING:  cpu time    1.2911: real time    1.2911
    --------------------------------------------
      LOOP:  cpu time  310.3767: real time  310.3784

 eigenvalue-minimisations  :   698
 total energy-change (2. order) : 0.9237722E-01  (-0.1750659E-01)
 number of electron     559.9999946 magnetization 
 augmentation part      241.1295767 magnetization 

 Broyden mixing:
  rms(total) = 0.49251E+00    rms(broyden)= 0.49229E+00
  rms(prec ) = 0.56315E+00
  weight for this iteration     100.00

 eigenvalues of (default mixing * dielectric matrix)
  average eigenvalue GAMMA=   0.3499
  2.0575  1.3402  0.7236  0.4142  0.4142  0.1977  0.1977  0.1305  0.1215  0.1215
[...]
 -0.006  -0.012   0.004   0.004   0.005  -0.006  -0.012   0.004
 -0.011  -0.020   0.006   0.007   0.009  -0.011  -0.020   0.006
 -0.015  -0.005   0.013   0.000   0.022  -0.014  -0.005   0.012
  0.000  -0.023  -0.006  -0.015  -0.000   0.000  -0.022  -0.006
 -0.022   0.000   0.009  -0.005  -0.016  -0.022   0.000   0.008
 -0.017  -0.006   0.015   0.000   0.027  -0.017  -0.006   0.015
  0.000  -0.027  -0.007  -0.018  -0.000   0.000  -0.027  -0.007
 -0.027   0.000   0.010  -0.006  -0.019  -0.026   0.000   0.010
 total augmentation occupancy for first ion, spin component:           1
  1.537  -0.032   0.005   0.016   0.023   0.075  -0.007  -0.002   0.036  -0.010   0.093  -0.031   0.012   0.002   0.002  -0.019
 -0.032   1.401   0.029   0.070  -0.001  -0.006   0.071   0.011  -0.014  -0.008   0.217  -0.065   0.019   0.002   0.003  -0.006
  0.005   0.029   1.543   0.002   0.002  -0.002   0.012   0.073  -0.012   0.017  -0.053   0.018  -0.003  -0.007  -0.005   0.016
  0.016   0.070   0.002   1.340   0.045   0.034  -0.014  -0.012   0.091  -0.023  -0.081   0.021  -0.001  -0.009  -0.004   0.001
  0.023  -0.001   0.002   0.045   1.441  -0.010  -0.008   0.016  -0.022   0.067  -0.094   0.031  -0.002  -0.010  -0.010   0.026
  0.075  -0.006  -0.002   0.034  -0.010   0.217   0.018  -0.002  -0.045   0.004  -0.048   0.002   0.017  -0.010   0.034  -0.004
 -0.007   0.071   0.012  -0.014  -0.008   0.018   0.262  -0.023  -0.003   0.006  -0.109   0.007  -0.001   0.051  -0.010  -0.000
 -0.002   0.011   0.073  -0.012   0.016  -0.002  -0.023   0.214   0.014  -0.020   0.028  -0.001  -0.012   0.009  -0.018   0.003
  0.036  -0.014  -0.012   0.091  -0.022  -0.045  -0.003   0.014   0.260   0.007   0.043  -0.004  -0.009   0.036   0.004   0.000
 -0.010  -0.008   0.017  -0.023   0.067   0.004   0.006  -0.020   0.007   0.258   0.046  -0.003  -0.038   0.002   0.049   0.007
  0.093   0.217  -0.053  -0.081  -0.094  -0.048  -0.109   0.028   0.043   0.046   0.948  -0.141   0.084   0.014   0.064  -0.013
 -0.031  -0.065   0.018   0.021   0.031   0.002   0.007  -0.001  -0.004  -0.003  -0.141   0.023  -0.014  -0.003  -0.010   0.003
  0.012   0.019  -0.003  -0.001  -0.002   0.017  -0.001  -0.012  -0.009  -0.038   0.084  -0.014   0.029  -0.008  -0.004  -0.003
  0.002   0.002  -0.007  -0.009  -0.010  -0.010   0.051   0.009   0.036   0.002   0.014  -0.003  -0.008   0.036   0.004   0.000
  0.002   0.003  -0.005  -0.004  -0.010   0.034  -0.010  -0.018   0.004   0.049   0.064  -0.010  -0.004   0.004   0.035  -0.000
 -0.019  -0.006   0.016   0.001   0.026  -0.004  -0.000   0.003   0.000   0.007  -0.013   0.003  -0.003   0.000  -0.000   0.001
  0.001  -0.028  -0.007  -0.018   0.001   0.001  -0.008  -0.001  -0.006  -0.000  -0.003   0.001   0.000  -0.003  -0.000   0.000
 -0.028   0.001   0.012  -0.005  -0.019  -0.006   0.001   0.003  -0.001  -0.007  -0.008   0.001  -0.000  -0.000  -0.003   0.000


------------------------ aborting loop because EDIFF is reached ----------------------------------------


    CHARGE:  cpu time   25.0997: real time   25.0995
    FORLOC:  cpu time    6.7263: real time    6.7263
    FORNL :  cpu time   65.2547: real time   65.2542
    STRESS:  cpu time  196.7462: real time  196.7449
    FORCOR:  cpu time   21.9969: real time   21.9972
    FORHAR:  cpu time    9.5882: real time    9.5882
    MIXING:  cpu time    3.4330: real time    3.4330
    OFIELD:  cpu time    0.0000: real time    0.0000

  FORCE on cell =-STRESS in cart. coord.  units (eV):
  Direction    XX          YY          ZZ          XY          YZ          ZX
  --------------------------------------------------------------------------------------
  Alpha Z    75.25432    75.25432    75.25432
  Ewald   48159.69070 43901.35511 45361.71886  -855.46698  -643.27758  1889.86939
  Hartree 62810.04306 58811.30792 60170.79448  -784.65396  -589.23817  1719.46651
  E(xc)   -2903.25884 -2904.83074 -2903.98084    -0.40107    -0.30271     1.19909
  Local  ************************************  1633.28985  1227.77233 -3592.94630
  n-local  -888.11956  -881.45486  -885.30945     2.23775     1.63885    -4.76459
  augment  4102.79438  4104.77675  4103.84075     0.38378     0.32881    -1.46825
  Kinetic  7794.54089  7810.17972  7802.64731     4.28249     3.01281   -11.77440
  Fock        0.00000     0.00000     0.00000     0.00000     0.00000     0.00000
  -------------------------------------------------------------------------------------
  Total    -113.09705  -113.60263  -114.83194    -0.32815    -0.06567    -0.41855
  in kB      -6.71117    -6.74117    -6.81412    -0.01947    -0.00390    -0.02484
  external pressure =       -6.76 kB  Pullay stress =        0.00 kB


 VOLUME and BASIS-vectors are now :
 -----------------------------------------------------------------------------
  energy-cutoff  :      400.00
  volume of cell :    27000.00
      direct lattice vectors                 reciprocal lattice vectors
    30.000000000  0.000000000  0.000000000     0.033333333  0.000000000  0.000000000
     0.000000000 30.000000000  0.000000000     0.000000000  0.033333333  0.000000000
     0.000000000  0.000000000 30.000000000     0.000000000  0.000000000  0.033333333

  length of vectors
    30.000000000 30.000000000 30.000000000     0.033333333  0.033333333  0.033333333


 FORCES acting on ions
    electron-ion (+dipol)            ewald-force                    non-local-force                 convergence-correction
 -----------------------------------------------------------------------------------------------
   0.385E+03 0.981E+03 0.412E+03   -.383E+03 -.978E+03 -.412E+03   -.149E+01 -.182E+01 -.224E+00   0.493E-03 0.414E-02 0.576E-02
   -.974E+03 -.393E+03 0.414E+03   0.972E+03 0.391E+03 -.414E+03   0.183E+01 0.149E+01 -.208E+00   -.275E-02 -.508E-02 -.277E-02
   -.400E+03 0.975E+03 0.414E+03   0.397E+03 -.972E+03 -.413E+03   0.149E+01 -.182E+01 -.227E+00   -.395E-03 0.498E-02 0.499E-02
   0.857E+03 -.371E+03 0.304E+03   -.856E+03 0.369E+03 -.305E+03   -.824E+00 0.111E+01 0.988E-01   0.296E-02 -.166E-02 0.217E-02
   -.116E+02 0.595E+03 0.964E+03   0.116E+02 -.594E+03 -.960E+03   0.503E-02 -.317E+00 -.234E+01   0.107E-02 0.188E-02 0.385E-02
   -.357E+01 0.588E+03 -.967E+03   0.354E+01 -.588E+03 0.964E+03   0.189E-01 -.310E+00 0.235E+01   0.633E-03 0.103E-02 -.871E-02
   -.439E+01 0.114E+04 -.296E+01   0.439E+01 -.113E+04 0.297E+01   -.147E-03 -.311E+01 -.633E-02   0.886E-04 0.713E-02 0.213E-02
   0.113E+04 0.218E+02 -.483E+02   -.112E+04 -.219E+02 0.484E+02   -.309E+01 0.356E-01 -.586E-01   0.634E-02 -.133E-02 0.417E-02
   -.113E+04 0.101E+01 -.215E+01   0.113E+04 -.101E+01 0.215E+01   0.310E+01 0.910E-03 -.250E-02   0.102E-02 -.513E-02 0.295E-02
   -.940E+01 -.114E+04 -.616E+01   0.941E+01 0.113E+04 0.617E+01   -.634E-02 0.310E+01 -.555E-02   -.357E-02 0.197E-02 0.139E-02
   -.583E+03 0.581E+03 0.812E+03   0.581E+03 -.579E+03 -.808E+03   0.155E+01 -.156E+01 -.220E+01   -.223E-02 0.927E-03 0.359E-02
   -.580E+03 0.579E+03 -.814E+03   0.577E+03 -.577E+03 0.811E+03   0.155E+01 -.156E+01 0.220E+01   -.242E-02 -.224E-02 -.420E-02
   0.502E+03 -.602E+03 0.815E+03   -.500E+03 0.600E+03 -.812E+03   -.160E+01 0.144E+01 -.205E+01   -.322E-02 -.389E-02 0.447E-03
   0.573E+03 -.579E+03 -.821E+03   -.570E+03 0.577E+03 0.818E+03   -.156E+01 0.155E+01 0.219E+01   -.419E-02 -.104E-02 -.312E-02
   0.560E+03 0.601E+03 0.812E+03   -.557E+03 -.599E+03 -.809E+03   -.157E+01 -.155E+01 -.220E+01   -.438E-03 0.288E-03 0.154E-02
   0.574E+03 0.582E+03 -.818E+03   -.572E+03 -.579E+03 0.815E+03   -.157E+01 -.155E+01 0.220E+01   0.112E-02 0.287E-02 -.984E-02
   -.586E+03 -.579E+03 0.812E+03   0.584E+03 0.576E+03 -.808E+03   0.154E+01 0.156E+01 -.220E+01   -.166E-02 -.152E-02 -.424E-02
   -.581E+03 -.578E+03 -.815E+03   0.578E+03 0.576E+03 0.811E+03   0.156E+01 0.155E+01 0.220E+01   0.185E-02 -.175E-02 0.213E-02
   0.389E+03 0.975E+03 -.421E+03   -.387E+03 -.972E+03 0.420E+03   -.150E+01 -.182E+01 0.213E+00   0.220E-02 0.553E-02 -.824E-02
   -.973E+03 -.393E+03 -.419E+03   0.970E+03 0.391E+03 0.418E+03   0.182E+01 0.150E+01 0.226E+00   0.186E-02 -.286E-02 0.175E-02
   -.331E+03 0.325E+03 0.450E+03   0.331E+03 -.326E+03 -.450E+03   -.380E+00 0.375E+00 0.520E+00   -.267E-02 -.465E-02 0.284E-02
   0.943E+03 0.441E+03 0.389E+03   -.940E+03 -.439E+03 -.388E+03   -.183E+01 -.136E+01 -.241E+00   0.343E-02 -.649E-03 0.459E-02
   -.405E+03 -.974E+03 0.413E+03   0.403E+03 0.972E+03 -.412E+03   0.149E+01 0.181E+01 -.226E+00   0.611E-03 0.612E-04 -.291E-02
   -.397E+03 0.973E+03 -.419E+03   0.395E+03 -.970E+03 0.418E+03   0.151E+01 -.181E+01 0.229E+00   -.286E-02 0.328E-02 -.588E-02
   0.963E+03 -.392E+03 -.438E+03   -.960E+03 0.390E+03 0.438E+03   -.182E+01 0.150E+01 0.244E+00   0.132E-02 -.348E-02 -.198E-02
   -.974E+03 0.396E+03 0.414E+03   0.971E+03 -.394E+03 -.414E+03   0.182E+01 -.150E+01 -.206E+00   -.611E-02 -.826E-02 -.773E-03
   0.369E+03 -.983E+03 0.407E+03   -.367E+03 0.980E+03 -.406E+03   -.149E+01 0.185E+01 -.228E+00   -.600E-02 -.404E-02 -.150E-02
   0.299E+03 0.335E+03 0.444E+03   -.300E+03 -.335E+03 -.445E+03   0.386E+00 0.347E+00 0.528E+00   0.847E-03 -.883E-03 0.643E-02
   -.807E+01 0.644E+03 -.531E+01   0.808E+01 -.645E+03 0.532E+01   -.136E-01 0.740E+00 -.100E-01   -.165E-02 0.164E-02 0.336E-02
   -.594E+03 0.204E+01 0.964E+03   0.593E+03 -.203E+01 -.960E+03   0.290E+00 -.114E-02 -.235E+01   -.526E-02 -.685E-02 -.132E-02
   -.588E+03 0.872E+00 -.966E+03   0.588E+03 -.878E+00 0.963E+03   0.310E+00 0.776E-02 0.235E+01   -.176E-02 -.412E-02 -.112E-02
   0.521E+03 0.356E+02 0.967E+03   -.520E+03 -.358E+02 -.964E+03   -.433E+00 0.145E+00 -.220E+01   0.839E-03 0.311E-03 0.252E-02
   0.581E+03 0.243E+01 -.973E+03   -.580E+03 -.243E+01 0.969E+03   -.316E+00 -.162E-02 0.234E+01   -.111E-02 0.151E-02 -.894E-02
   0.750E+03 0.773E+03 -.111E+02   -.748E+03 -.771E+03 0.111E+02   -.113E+01 -.116E+01 0.165E-01   0.359E-02 0.393E-02 0.462E-02
   -.766E+03 -.760E+03 -.350E+01   0.764E+03 0.759E+03 0.350E+01   0.114E+01 0.114E+01 0.219E-02   -.987E-04 -.138E-02 0.102E-02
   -.764E+03 0.762E+03 -.258E+01   0.762E+03 -.760E+03 0.258E+01   0.115E+01 -.114E+01 0.207E-02   -.723E-02 -.179E-02 -.604E-03
   0.737E+03 -.768E+03 -.271E+02   -.735E+03 0.766E+03 0.271E+02   -.116E+01 0.122E+01 0.397E-01   -.447E-02 -.660E-02 0.274E-02
   -.216E+02 0.630E+01 0.107E+04   0.215E+02 -.630E+01 -.107E+04   0.318E-01 -.727E-02 -.162E+01   -.545E-03 -.354E-02 0.331E-02
   -.459E+01 0.144E+01 -.107E+04   0.459E+01 -.144E+01 0.107E+04   0.721E-02 0.417E-03 0.161E+01   -.362E-02 -.453E-02 -.412E-02
   0.965E+03 0.402E+03 -.432E+03   -.962E+03 -.400E+03 0.431E+03   -.181E+01 -.151E+01 0.241E+00   0.391E-02 0.209E-02 -.695E-02
   -.399E+03 -.972E+03 -.421E+03   0.397E+03 0.969E+03 0.420E+03   0.151E+01 0.181E+01 0.210E+00   -.267E-02 0.109E-02 0.220E-02
   -.326E+03 0.323E+03 -.457E+03   0.326E+03 -.323E+03 0.458E+03   -.372E+00 0.357E+00 -.518E+00   -.728E-02 -.689E-02 -.539E-02
   0.285E+03 -.318E+03 0.439E+03   -.285E+03 0.319E+03 -.439E+03   0.407E+00 -.358E+00 0.458E+00   -.470E-02 -.674E-02 0.862E-03
   0.313E+03 0.326E+03 -.462E+03   -.313E+03 -.326E+03 0.462E+03   0.351E+00 0.384E+00 -.550E+00   -.125E-02 -.198E-02 -.936E-02
   -.972E+03 0.395E+03 -.418E+03   0.969E+03 -.393E+03 0.418E+03   0.183E+01 -.150E+01 0.220E+00   -.343E-02 -.437E-02 -.147E-02
   0.385E+03 -.975E+03 -.425E+03   -.383E+03 0.972E+03 0.425E+03   -.152E+01 0.180E+01 0.196E+00   -.887E-02 -.190E-02 0.270E-02
   -.334E+03 -.320E+03 0.449E+03   0.334E+03 0.320E+03 -.450E+03   -.402E+00 -.377E+00 0.525E+00   -.661E-02 -.932E-02 -.237E-02
   0.617E+03 0.113E+02 -.248E+02   -.618E+03 -.112E+02 0.246E+02   0.799E+00 -.123E+00 0.143E+00   -.430E-04 -.524E-02 0.489E-02
   -.644E+03 0.160E+01 -.342E+01   0.645E+03 -.159E+01 0.343E+01   -.727E+00 -.137E-03 -.118E-01   -.636E-02 -.108E-01 0.430E-03
   -.230E+02 -.590E+03 0.964E+03   0.229E+02 0.589E+03 -.960E+03   0.336E-01 0.314E+00 -.235E+01   -.358E-02 -.524E-02 -.698E-03
   -.486E+01 -.587E+03 -.969E+03   0.487E+01 0.586E+03 0.965E+03   -.812E-03 0.298E+00 0.235E+01   -.728E-02 -.229E-02 0.932E-03
   -.131E+02 0.390E+01 -.851E+01   0.131E+02 -.388E+01 0.849E+01   0.515E-02 -.187E-02 0.427E-02   -.629E-02 -.113E-01 0.355E-04
   0.311E+03 -.320E+03 -.465E+03   -.311E+03 0.320E+03 0.465E+03   0.371E+00 -.364E+00 -.525E+00   -.839E-02 -.719E-02 -.123E-02
   -.327E+03 -.320E+03 -.458E+03   0.327E+03 0.321E+03 0.459E+03   -.368E+00 -.366E+00 -.521E+00   -.380E-02 -.882E-02 0.192E-03
   -.137E+02 -.640E+03 -.892E+01   0.137E+02 0.641E+03 0.890E+01   0.100E-01 -.735E+00 0.153E-01   -.706E-02 -.679E-02 -.515E-03
   0.153E+03 -.472E+02 0.102E+03   -.130E+03 0.409E+02 -.878E+02   -.192E+02 0.554E+01 -.119E+02   0.801E-03 -.178E-03 0.375E-03
   0.558E+03 -.168E+03 0.356E+03   -.611E+03 0.182E+03 -.389E+03   0.503E+02 -.143E+02 0.314E+02   0.121E-02 -.262E-03 0.603E-03
 -----------------------------------------------------------------------------------------------
   -.319E+02 0.912E+01 -.202E+02   0.000E+00 -.193E-11 -.966E-12   0.320E+02 -.900E+01 0.202E+02   -.106E+00 -.122E+00 -.167E-01
 
 
 POSITION                                       TOTAL-FORCE (eV/Angst)
 -----------------------------------------------------------------------------------
     13.37281      9.84801     12.50759         0.703164      1.108692      0.291718
     20.15199     16.62719     12.50759        -1.115561     -0.701376      0.284319
     16.62719      9.84801     12.50759        -0.702524      1.107669      0.292737
      9.84801     16.62719     12.50759         0.048153     -0.487969     -0.724300
     15.00000     11.47521     10.20639        -0.001365      0.412723      1.280368
     15.00000     11.47521     19.79360        -0.009228      0.412844     -1.282543
     15.00000      8.28283     15.00000        -0.000113      1.518932      0.003815
      8.28283     15.00000     15.00000         1.532121     -0.017973      0.032882
     21.71717     15.00000     15.00000        -1.517880     -0.000028     -0.001244
     15.00000     21.71717     15.00000         0.002790     -1.519443      0.004357
     18.35858     11.64142     10.25025        -0.754318      0.760774      1.074587
     18.35858     11.64142     19.74975        -0.753949      0.757067     -1.071919
     11.64142     18.35858     10.25025         0.789907     -0.739408      1.050850
     11.64142     18.35858     19.74975         0.761551     -0.756024     -1.072209
     11.64142     11.64142     10.25025         0.760208      0.767475      1.076696
     11.64142     11.64142     19.74975         0.765735      0.753465     -1.073785
     18.35858     18.35858     10.25025        -0.747927     -0.764229      1.077008
     18.35858     18.35858     19.74975        -0.761425     -0.752479     -1.073587
     13.37281      9.84801     17.49241         0.706315      1.107050     -0.286842
     20.15199     16.62719     17.49241        -1.107943     -0.705961     -0.291605
     16.73751     13.26249     12.54279         0.112310     -0.110810     -0.158791
      9.84801     13.37281     12.50759         1.132272      0.626884      0.316367
     16.62719     20.15199     12.50759        -0.707145     -1.108507      0.291762
     16.62719      9.84801     17.49241        -0.710014      1.108008     -0.297923
      9.84801     16.62719     17.49241         1.105917     -0.706547     -0.292829
     20.15199     13.37281     12.50759        -1.112005      0.704929      0.287233
     13.37281     20.15199     12.50759         0.710039     -1.102203      0.288590
     13.26249     13.26249     12.54279        -0.111343     -0.110820     -0.155904
     15.00000     11.52498     15.00000         0.001057     -0.231868      0.004060
     18.52479     15.00000     10.20639        -0.406527      0.001624      1.285291
     18.52479     15.00000     19.79360        -0.413085     -0.001848     -1.283805
     11.47521     15.00000     10.20640         0.468302     -0.048333      1.239269
     11.47521     15.00000     19.79360         0.414294      0.000676     -1.281909
     11.49535     11.49535     15.00000         0.823322      0.833010     -0.011536
     18.50465     18.50465     15.00000        -0.826255     -0.827508      0.000534
     18.50465     11.49535     15.00000        -0.827953      0.828642      0.000177
     11.49535     18.50465     15.00000         0.840918     -0.856136     -0.000935
     15.00000     15.00000     10.04368        -0.010685     -0.005267      1.177377
     15.00000     15.00000     19.95633        -0.000774      0.001187     -1.177152
      9.84801     13.37281     17.49241         1.103345      0.708353     -0.298756
     16.62719     20.15199     17.49241        -0.710167     -1.109777     -0.289966
     16.73751     13.26249     17.45721         0.115347     -0.107335      0.154680
     13.26249     16.73751     12.54279        -0.086105      0.110592     -0.124399
     13.26249     13.26249     17.45721        -0.106636     -0.126813      0.172052
     20.15199     13.37281     17.49241        -1.109232      0.705111     -0.290624
     13.37281     20.15199     17.49241         0.723640     -1.107795     -0.276830
     16.73751     16.73751     12.54279         0.133635      0.108164     -0.159124
     11.52498     15.00000     15.00000        -0.249304      0.048326     -0.040419
     18.47502     15.00000     15.00000         0.230880     -0.002082      0.004042
     15.00000     18.52480     10.20639        -0.013028     -0.410705      1.280734
     15.00000     18.52480     19.79360         0.000286     -0.409565     -1.285036
     15.00000     15.00000     15.00000        -0.010922      0.000121     -0.009959
     13.26249     16.73751     17.45721        -0.118698      0.115531      0.151680
     16.73751     16.73751     17.45721         0.113008      0.113631      0.160102
     15.00000     18.47502     15.00000        -0.005999      0.229585     -0.001807
      8.14287     16.93808     10.69939         3.318298     -0.775955      2.598272
      7.21353     17.20075     10.11654        -2.408701      0.653699     -1.565824
 -----------------------------------------------------------------------------------
    total drift:                               -0.008038      0.004637     -0.000193


--------------------------------------------------------------------------------------------------------



  FREE ENERGIE OF THE ION-ELECTRON SYSTEM (eV)
  ---------------------------------------------------
  free  energy   TOTEN  =      -174.06233512 eV

  energy  without entropy=     -173.94202800  energy(sigma->0) =     -174.03225834
 


--------------------------------------------------------------------------------------------------------


    POTLOK:  cpu time   13.9214: real time   13.9214


--------------------------------------------------------------------------------------------------------


     LOOP+:  cpu time18448.7470: real time18449.2407
    4ORBIT:  cpu time    0.0000: real time    0.0000

 total amount of memory used by VASP MPI-rank0  5486941. kBytes
=======================================================================

   base      :      30000. kBytes
   nonlr-proj:      17126. kBytes
   fftplans  :     924480. kBytes
   grid      :    1872000. kBytes
   one-center:        886. kBytes
   wavefun   :    2642449. kBytes
 
  
  
 General timing and accounting informations for this job:
 ========================================================
  
                  Total CPU time used (sec):    18522.111
                            User time (sec):    17472.290
                          System time (sec):     1049.821
                         Elapsed time (sec):    18522.639
  
                   Maximum memory used (kb):     7179200.
                   Average memory used (kb):           0.
  
                          Minor page faults:    824229154
                          Major page faults:            0
                 Voluntary context switches:          409
