   57   57    1    1
  0.4736842E+03  0.3000000E-08  0.3000000E-08  0.3000000E-08  0.5000000E-15
  1.000000000000000E-004
  CAR 
 6_Pd100_top_free_z(O)                   
    560      1    336
 
  0.0000000E+00  0.0000000E+00  0.0000000E+00  0.1000000E+01
    1      -28.059976   1.000000
    2      -13.613896   1.000000
    3      -11.308970   1.000000
    4      -10.953332   1.000000
    5      -10.705872   1.000000
    6       -6.766356   1.000000
    7       -6.732027   1.000000
    8       -6.639156   1.000000
    9       -6.213816   1.000000
   10       -6.146166   1.000000
   11       -6.136264   1.000000
   12       -5.964051   1.000000
   13       -5.927461   1.000000
   14       -5.878398   1.000000
   15       -5.824324   1.000000
   16       -5.799861   1.000000
   17       -5.777455   1.000000
   18       -5.740895   1.000000
   19       -5.703957   1.000000
   20       -5.695903   1.000000
   21       -5.690660   1.000000
   22       -5.649577   1.000000
   23       -5.638719   1.000000
   24       -5.626233   1.000000
   25       -5.611250   1.000000
   26       -5.608188   1.000000
   27       -5.596225   1.000000
   28       -5.588491   1.000000
   29       -5.563146   1.000000
   30       -5.561657   1.000000
   31       -5.559729   1.000000
   32       -5.546820   1.000000
   33       -5.533739   1.000000
   34       -5.531151   1.000000
   35       -5.528537   1.000000
   36       -5.526028   1.000000
   37       -5.524175   1.000000
   38       -5.521232   1.000000
   39       -5.508451   1.000000
   40       -5.500597   1.000000
   41       -5.487101   1.000000
   42       -5.484663   1.000000
   43       -5.482472   1.000000
   44       -5.479107   1.000000
   45       -5.476905   1.000000
   46       -5.469539   1.000000
   47       -5.464625   1.000000
   48       -5.448468   1.000000
   49       -5.442479   1.000000
   50       -5.440597   1.000000
   51       -5.438062   1.000000
   52       -5.429721   1.000000
   53       -5.423615   1.000000
   54       -5.419165   1.000000
   55       -5.415532   1.000000
   56       -5.413180   1.000000
   57       -5.395679   1.000000
   58       -5.385569   1.000000
   59       -5.366596   1.000000
   60       -5.359553   1.000000
   61       -5.338679   1.000000
   62       -5.332921   1.000000
   63       -5.330552   1.000000
   64       -5.328189   1.000000
   65       -5.322081   1.000000
   66       -5.311805   1.000000
   67       -5.310437   1.000000
   68       -5.302971   1.000000
   69       -5.297962   1.000000
   70       -5.274275   1.000000
   71       -5.242386   1.000000
   72       -5.234234   1.000000
   73       -5.212334   1.000000
   74       -5.211529   1.000000
   75       -5.209198   1.000000
   76       -5.201382   1.000000
   77       -5.196099   1.000000
   78       -5.186714   1.000000
   79       -5.184801   1.000000
   80       -5.178809   1.000000
   81       -5.175605   1.000000
   82       -5.166756   1.000000
   83       -5.157586   1.000000
   84       -5.153692   1.000000
   85       -5.143504   1.000000
   86       -5.139838   1.000000
   87       -5.126564   1.000000
   88       -5.115981   1.000000
   89       -5.113236   1.000000
   90       -5.107828   1.000000
   91       -5.090583   1.000000
   92       -5.078477   1.000000
   93       -5.071956   1.000000
   94       -5.070193   1.000000
   95       -5.063611   1.000000
   96       -5.061711   1.000000
   97       -5.057527   1.000000
   98       -5.054804   1.000000
   99       -5.048348   1.000000
  100       -5.043162   1.000000
  101       -5.041872   1.000000
  102       -5.034255   1.000000
  103       -5.028391   1.000000
  104       -5.018134   1.000000
  105       -5.015490   1.000000
  106       -5.012354   1.000000
  107       -5.011360   1.000000
  108       -5.007917   1.000000
  109       -5.000111   1.000000
  110       -4.994636   1.000000
  111       -4.990310   1.000000
  112       -4.986257   1.000000
  113       -4.983842   1.000000
  114       -4.975654   1.000000
  115       -4.972519   0.999999
  116       -4.966027   0.999999
  117       -4.962232   0.999999
  118       -4.952289   0.999999
  119       -4.947672   0.999999
  120       -4.940897   0.999998
  121       -4.931328   0.999998
  122       -4.925579   0.999997
  123       -4.922106   0.999997
  124       -4.916632   0.999996
  125       -4.913217   0.999996
  126       -4.911688   0.999996
  127       -4.902947   0.999994
  128       -4.892888   0.999992
  129       -4.866360   0.999982
  130       -4.863627   0.999981
  131       -4.857844   0.999977
  132       -4.854876   0.999975
  133       -4.851351   0.999972
  134       -4.845941   0.999967
  135       -4.841652   0.999963
  136       -4.831245   0.999951
  137       -4.821107   0.999935
  138       -4.814842   0.999923
  139       -4.807163   0.999905
  140       -4.800483   0.999887
  141       -4.797457   0.999878
  142       -4.790405   0.999854
  143       -4.777828   0.999800
  144       -4.775010   0.999786
  145       -4.762361   0.999711
  146       -4.755779   0.999664
  147       -4.750507   0.999621
  148       -4.740447   0.999527
  149       -4.732965   0.999445
  150       -4.720901   0.999287
  151       -4.717516   0.999236
  152       -4.708312   0.999085
  153       -4.703563   0.998998
  154       -4.702874   0.998985
  155       -4.694519   0.998815
  156       -4.692411   0.998769
  157       -4.688702   0.998685
  158       -4.683936   0.998571
  159       -4.680523   0.998485
  160       -4.676349   0.998375
  161       -4.671387   0.998237
  162       -4.669300   0.998177
  163       -4.663392   0.998000
  164       -4.660317   0.997904
  165       -4.659236   0.997870
  166       -4.657427   0.997811
  167       -4.656180   0.997771
  168       -4.652319   0.997642
  169       -4.649104   0.997533
  170       -4.648153   0.997500
  171       -4.631271   0.996888
  172       -4.627800   0.996758
  173       -4.621249   0.996511
  174       -4.616959   0.996351
  175       -4.612700   0.996193
  176       -4.608825   0.996053
  177       -4.605175   0.995924
  178       -4.604377   0.995896
  179       -4.602318   0.995826
  180       -4.594162   0.995566
  181       -4.589425   0.995432
  182       -4.585915   0.995342
  183       -4.580527   0.995225
  184       -4.576317   0.995153
  185       -4.572088   0.995101
  186       -4.568356   0.995073
  187       -4.567771   0.995071
  188       -4.565734   0.995065
  189       -4.559985   0.995085
  190       -4.559170   0.995092
  191       -4.552521   0.995196
  192       -4.541830   0.995557
  193       -4.521585   0.997065
  194       -4.520061   0.997230
  195       -4.517788   0.997491
  196       -4.515305   0.997797
  197       -4.509638   0.998581
  198       -4.505756   0.999190
  199       -4.500962   1.000025
  200       -4.493984   1.001413
  201       -4.492072   1.001830
  202       -4.485688   1.003339
  203       -4.479759   1.004905
  204       -4.474027   1.006572
  205       -4.471465   1.007366
  206       -4.464542   1.009659
  207       -4.460514   1.011092
  208       -4.458134   1.011971
  209       -4.455459   1.012987
  210       -4.451241   1.014650
  211       -4.441344   1.018812
  212       -4.436838   1.020815
  213       -4.434781   1.021748
  214       -4.433247   1.022451
  215       -4.425268   1.026188
  216       -4.420554   1.028442
  217       -4.419167   1.029108
  218       -4.416606   1.030341
  219       -4.412896   1.032127
  220       -4.407506   1.034705
  221       -4.400657   1.037909
  222       -4.383251   1.045228
  223       -4.379281   1.046633
  224       -4.375018   1.047990
  225       -4.371243   1.049044
  226       -4.359397   1.051257
  227       -4.359110   1.051287
  228       -4.349456   1.051534
  229       -4.348719   1.051487
  230       -4.346762   1.051314
  231       -4.343845   1.050919
  232       -4.343130   1.050797
  233       -4.339224   1.049940
  234       -4.337460   1.049446
  235       -4.336755   1.049230
  236       -4.334750   1.048552
  237       -4.333841   1.048213
  238       -4.332219   1.047562
  239       -4.327750   1.045433
  240       -4.321692   1.041726
  241       -4.319241   1.039943
  242       -4.316637   1.037860
  243       -4.304798   1.025818
  244       -4.301575   1.021768
  245       -4.299981   1.019636
  246       -4.295747   1.013554
  247       -4.294564   1.011744
  248       -4.291479   1.006790
  249       -4.290201   1.004638
  250       -4.281884   0.989185
  251       -4.278887   0.982986
  252       -4.275194   0.974879
  253       -4.272848   0.969460
  254       -4.271185   0.965490
  255       -4.268200   0.958097
  256       -4.264559   0.948613
  257       -4.263525   0.945824
  258       -4.260044   0.936136
  259       -4.258264   0.931001
  260       -4.256814   0.926727
  261       -4.253942   0.918021
  262       -4.252201   0.912590
  263       -4.250093   0.905858
  264       -4.248582   0.900928
  265       -4.247672   0.897916
  266       -4.237450   0.861968
  267       -4.235286   0.853867
  268       -4.233914   0.848642
  269       -4.233196   0.845883
  270       -4.229898   0.832978
  271       -4.228828   0.828708
  272       -4.221506   0.798477
  273       -4.214783   0.769227
  274       -4.205651   0.727410
  275       -4.196914   0.685435
  276       -4.191571   0.658962
  277       -4.189091   0.646488
  278       -4.185293   0.627197
  279       -4.184558   0.623438
  280       -4.182488   0.612811
  281       -4.169520   0.545170
  282       -4.153341   0.459705
  283       -4.149336   0.438639
  284       -4.142859   0.404829
  285       -4.140109   0.390602
  286       -4.137457   0.376971
  287       -4.127636   0.327451
  288       -4.125204   0.315461
  289       -4.093612   0.173318
  290       -3.975951  -0.051225
  291       -3.869535  -0.014186
  292       -3.841011  -0.004585
  293       -3.825338  -0.000869
  294       -3.636753   0.001399
  295       -3.528900   0.000137
  296       -3.504469   0.000072
  297       -3.342770   0.000000
  298       -3.088524   0.000000
  299       -3.077864   0.000000
  300       -3.062887   0.000000
  301       -3.045282   0.000000
  302       -3.031821   0.000000
  303       -2.961122   0.000000
  304       -2.952403   0.000000
  305       -2.669874   0.000000
  306       -2.599550   0.000000
  307       -2.531754   0.000000
  308       -2.476587   0.000000
  309       -2.296266   0.000000
  310       -2.127275   0.000000
  311       -2.123988   0.000000
  312       -2.101600   0.000000
  313       -2.019176   0.000000
  314       -1.962175   0.000000
  315       -1.952856   0.000000
  316       -1.893377   0.000000
  317       -1.787636   0.000000
  318       -1.721674   0.000000
  319       -1.672655   0.000000
  320       -1.655166   0.000000
  321       -1.602293   0.000000
  322       -1.566044   0.000000
  323       -1.491936   0.000000
  324       -1.345527   0.000000
  325       -1.252737   0.000000
  326       -1.190575   0.000000
  327       -1.084580   0.000000
  328       -0.998258   0.000000
  329       -0.992632   0.000000
  330       -0.970272   0.000000
  331       -0.963933   0.000000
  332       -0.940119   0.000000
  333       -0.929526   0.000000
  334       -0.897667   0.000000
  335       -0.858214   0.000000
  336       -0.731197   0.000000
