   57   57    1    1
  0.4736842E+03  0.3000000E-08  0.3000000E-08  0.3000000E-08  0.5000000E-15
  1.000000000000000E-004
  CAR 
 6_Pd100_top_free_z(O)                   
    560      1    336
 
  0.0000000E+00  0.0000000E+00  0.0000000E+00  0.1000000E+01
    1      -28.378767   1.000000
    2      -13.552210   1.000000
    3      -11.257937   1.000000
    4      -10.940909   1.000000
    5      -10.892151   1.000000
    6       -6.776768   1.000000
    7       -6.716186   1.000000
    8       -6.671994   1.000000
    9       -6.230017   1.000000
   10       -6.142857   1.000000
   11       -6.140581   1.000000
   12       -5.983947   1.000000
   13       -5.923325   1.000000
   14       -5.880480   1.000000
   15       -5.820514   1.000000
   16       -5.812271   1.000000
   17       -5.779443   1.000000
   18       -5.747917   1.000000
   19       -5.708499   1.000000
   20       -5.701244   1.000000
   21       -5.694115   1.000000
   22       -5.654900   1.000000
   23       -5.640819   1.000000
   24       -5.627759   1.000000
   25       -5.617418   1.000000
   26       -5.611875   1.000000
   27       -5.603004   1.000000
   28       -5.586741   1.000000
   29       -5.565876   1.000000
   30       -5.564952   1.000000
   31       -5.560632   1.000000
   32       -5.541222   1.000000
   33       -5.536076   1.000000
   34       -5.535375   1.000000
   35       -5.531197   1.000000
   36       -5.529505   1.000000
   37       -5.528721   1.000000
   38       -5.525813   1.000000
   39       -5.513410   1.000000
   40       -5.498464   1.000000
   41       -5.491374   1.000000
   42       -5.490089   1.000000
   43       -5.486861   1.000000
   44       -5.484126   1.000000
   45       -5.482142   1.000000
   46       -5.471833   1.000000
   47       -5.449356   1.000000
   48       -5.448421   1.000000
   49       -5.444816   1.000000
   50       -5.443519   1.000000
   51       -5.441571   1.000000
   52       -5.439627   1.000000
   53       -5.429728   1.000000
   54       -5.424798   1.000000
   55       -5.421355   1.000000
   56       -5.419228   1.000000
   57       -5.405591   1.000000
   58       -5.377823   1.000000
   59       -5.358908   1.000000
   60       -5.350635   1.000000
   61       -5.343224   1.000000
   62       -5.339433   1.000000
   63       -5.333849   1.000000
   64       -5.330566   1.000000
   65       -5.324812   1.000000
   66       -5.318065   1.000000
   67       -5.316508   1.000000
   68       -5.309703   1.000000
   69       -5.299571   1.000000
   70       -5.242398   1.000000
   71       -5.226631   1.000000
   72       -5.225539   1.000000
   73       -5.216458   1.000000
   74       -5.210558   1.000000
   75       -5.200311   1.000000
   76       -5.197416   1.000000
   77       -5.195465   1.000000
   78       -5.188235   1.000000
   79       -5.184863   1.000000
   80       -5.182044   1.000000
   81       -5.180355   1.000000
   82       -5.172464   1.000000
   83       -5.154697   1.000000
   84       -5.148021   1.000000
   85       -5.142799   1.000000
   86       -5.129908   1.000000
   87       -5.128135   1.000000
   88       -5.117850   1.000000
   89       -5.108062   1.000000
   90       -5.099864   1.000000
   91       -5.089229   1.000000
   92       -5.072228   1.000000
   93       -5.072035   1.000000
   94       -5.070096   1.000000
   95       -5.067632   1.000000
   96       -5.065680   1.000000
   97       -5.059241   1.000000
   98       -5.058072   1.000000
   99       -5.047596   1.000000
  100       -5.045963   1.000000
  101       -5.042127   1.000000
  102       -5.036047   1.000000
  103       -5.029489   1.000000
  104       -5.020963   1.000000
  105       -5.019883   1.000000
  106       -5.018359   1.000000
  107       -5.013560   1.000000
  108       -5.007956   1.000000
  109       -5.006820   1.000000
  110       -4.995650   1.000000
  111       -4.994693   1.000000
  112       -4.988480   1.000000
  113       -4.978899   0.999999
  114       -4.978652   0.999999
  115       -4.973575   0.999999
  116       -4.970113   0.999999
  117       -4.967396   0.999999
  118       -4.956102   0.999999
  119       -4.949139   0.999999
  120       -4.943589   0.999998
  121       -4.934033   0.999998
  122       -4.929673   0.999997
  123       -4.925833   0.999997
  124       -4.919946   0.999996
  125       -4.918683   0.999996
  126       -4.917835   0.999996
  127       -4.910588   0.999995
  128       -4.891381   0.999990
  129       -4.869385   0.999981
  130       -4.859066   0.999974
  131       -4.858064   0.999973
  132       -4.856383   0.999972
  133       -4.854123   0.999970
  134       -4.851590   0.999968
  135       -4.846293   0.999962
  136       -4.835205   0.999949
  137       -4.820227   0.999923
  138       -4.808586   0.999895
  139       -4.805768   0.999887
  140       -4.799556   0.999867
  141       -4.794049   0.999848
  142       -4.781086   0.999790
  143       -4.769950   0.999726
  144       -4.763386   0.999681
  145       -4.754535   0.999611
  146       -4.753221   0.999599
  147       -4.747379   0.999544
  148       -4.738452   0.999447
  149       -4.735433   0.999411
  150       -4.719413   0.999183
  151       -4.705963   0.998942
  152       -4.702844   0.998879
  153       -4.698576   0.998789
  154       -4.697549   0.998766
  155       -4.689555   0.998579
  156       -4.688083   0.998543
  157       -4.687160   0.998519
  158       -4.686339   0.998498
  159       -4.683250   0.998418
  160       -4.677337   0.998256
  161       -4.671908   0.998098
  162       -4.664077   0.997856
  163       -4.662944   0.997819
  164       -4.662306   0.997798
  165       -4.661470   0.997771
  166       -4.659826   0.997717
  167       -4.657519   0.997640
  168       -4.650442   0.997395
  169       -4.649373   0.997357
  170       -4.643556   0.997147
  171       -4.633606   0.996778
  172       -4.626382   0.996506
  173       -4.618826   0.996224
  174       -4.615681   0.996109
  175       -4.611538   0.995962
  176       -4.609592   0.995894
  177       -4.606526   0.995790
  178       -4.605525   0.995757
  179       -4.603419   0.995689
  180       -4.598181   0.995529
  181       -4.591234   0.995343
  182       -4.587381   0.995257
  183       -4.582332   0.995165
  184       -4.575866   0.995088
  185       -4.573717   0.995074
  186       -4.569516   0.995065
  187       -4.566629   0.995075
  188       -4.564620   0.995091
  189       -4.563172   0.995106
  190       -4.560376   0.995146
  191       -4.547512   0.995539
  192       -4.539023   0.996016
  193       -4.530500   0.996702
  194       -4.524569   0.997316
  195       -4.520815   0.997768
  196       -4.515801   0.998451
  197       -4.511645   0.999091
  198       -4.508618   0.999600
  199       -4.495256   1.002305
  200       -4.492234   1.003025
  201       -4.489363   1.003748
  202       -4.480239   1.006291
  203       -4.478132   1.006933
  204       -4.474659   1.008035
  205       -4.470096   1.009565
  206       -4.465991   1.011020
  207       -4.463397   1.011978
  208       -4.461049   1.012868
  209       -4.456340   1.014723
  210       -4.454987   1.015272
  211       -4.440096   1.021732
  212       -4.438914   1.022274
  213       -4.436971   1.023170
  214       -4.428594   1.027120
  215       -4.425924   1.028399
  216       -4.423130   1.029742
  217       -4.421986   1.030293
  218       -4.420701   1.030912
  219       -4.419423   1.031528
  220       -4.404592   1.038524
  221       -4.385909   1.046170
  222       -4.384554   1.046635
  223       -4.379933   1.048099
  224       -4.376676   1.049005
  225       -4.370706   1.050356
  226       -4.360819   1.051557
  227       -4.353268   1.051431
  228       -4.352111   1.051321
  229       -4.350430   1.051117
  230       -4.348986   1.050896
  231       -4.348515   1.050815
  232       -4.347341   1.050594
  233       -4.344382   1.049908
  234       -4.342304   1.049313
  235       -4.340155   1.048596
  236       -4.337729   1.047658
  237       -4.337256   1.047458
  238       -4.334481   1.046179
  239       -4.332716   1.045265
  240       -4.331254   1.044447
  241       -4.324133   1.039644
  242       -4.317203   1.033584
  243       -4.314316   1.030630
  244       -4.305394   1.019817
  245       -4.304532   1.018631
  246       -4.303556   1.017260
  247       -4.299104   1.010585
  248       -4.296365   1.006133
  249       -4.296054   1.005610
  250       -4.286772   0.988391
  251       -4.281261   0.976649
  252       -4.277758   0.968583
  253       -4.275790   0.963845
  254       -4.273310   0.957664
  255       -4.269349   0.947293
  256       -4.266843   0.940421
  257       -4.265096   0.935484
  258       -4.263154   0.929858
  259       -4.260498   0.921927
  260       -4.259396   0.918555
  261       -4.257782   0.913534
  262       -4.255127   0.905058
  263       -4.253321   0.899138
  264       -4.252900   0.897741
  265       -4.250859   0.890870
  266       -4.243098   0.863325
  267       -4.239927   0.851438
  268       -4.238079   0.844349
  269       -4.235522   0.834335
  270       -4.234524   0.830370
  271       -4.231208   0.816943
  272       -4.225511   0.793034
  273       -4.218741   0.763312
  274       -4.209058   0.718562
  275       -4.199820   0.673740
  276       -4.197972   0.664556
  277       -4.191625   0.632559
  278       -4.191354   0.631178
  279       -4.190403   0.626326
  280       -4.185364   0.600395
  281       -4.175513   0.548925
  282       -4.165910   0.498214
  283       -4.153340   0.431947
  284       -4.144708   0.387091
  285       -4.143229   0.379492
  286       -4.142428   0.375386
  287       -4.134344   0.334547
  288       -4.131803   0.321948
  289       -4.125385   0.290725
  290       -3.974001  -0.051622
  291       -3.875071  -0.014288
  292       -3.845239  -0.004301
  293       -3.829177  -0.000581
  294       -3.743743   0.004714
  295       -3.524345   0.000106
  296       -3.501715   0.000058
  297       -3.399077   0.000002
  298       -3.078526   0.000000
  299       -3.074778   0.000000
  300       -3.061833   0.000000
  301       -3.043989   0.000000
  302       -3.031196   0.000000
  303       -2.954921   0.000000
  304       -2.951948   0.000000
  305       -2.849465   0.000000
  306       -2.539811   0.000000
  307       -2.533225   0.000000
  308       -2.487383   0.000000
  309       -2.342631   0.000000
  310       -2.130719   0.000000
  311       -2.127355   0.000000
  312       -2.073793   0.000000
  313       -2.017572   0.000000
  314       -1.962945   0.000000
  315       -1.935965   0.000000
  316       -1.881147   0.000000
  317       -1.791265   0.000000
  318       -1.729054   0.000000
  319       -1.672056   0.000000
  320       -1.652680   0.000000
  321       -1.651938   0.000000
  322       -1.569484   0.000000
  323       -1.484398   0.000000
  324       -1.369827   0.000000
  325       -1.250987   0.000000
  326       -1.197671   0.000000
  327       -1.111783   0.000000
  328       -1.007962   0.000000
  329       -0.996046   0.000000
  330       -0.974209   0.000000
  331       -0.957129   0.000000
  332       -0.942929   0.000000
  333       -0.903233   0.000000
  334       -0.876714   0.000000
  335       -0.820039   0.000000
  336       -0.647735   0.000000
