 vasp.5.4.4.18Apr17-6-g9f103f2a35 (build Sep 03 2018 23:53:05) complex          
  
 executed on             LinuxIFC date 2021.11.26  18:14:23
 running on    1 total cores
 distrk:  each k-point on    1 cores,    1 groups
 distr:  one band on NCORES_PER_BAND=   1 cores,    1 groups


--------------------------------------------------------------------------------------------------------


 INCAR:
 POTCAR:    PAW_PBE Pd 04Jan2005                  
 POTCAR:    PAW_PBE C 08Apr2002                   
 POTCAR:    PAW_PBE O 08Apr2002                   
 POTCAR:    PAW_PBE Pd 04Jan2005                  
   VRHFIN =Pd : s1 d9                                                           
   LEXCH  = PE                                                                  
   EATOM  =   809.7530 eV,   59.5152 Ry                                         
                                                                                
   TITEL  = PAW_PBE Pd 04Jan2005                                                
   LULTRA =        F    use ultrasoft PP ?                                      
   IUNSCR =        1    unscreen: 0-lin 1-nonlin 2-no                           
   RPACOR =    2.000    partial core radius                                     
   POMASS =  106.420; ZVAL   =   10.000    mass and valenz                      
   RCORE  =    2.600    outmost cutoff radius                                   
   RWIGS  =    2.710; RWIGS  =    1.434    wigner-seitz radius (au A)           
   ENMAX  =  250.925; ENMIN  =  188.194 eV                                      
   ICORE  =        3    local potential                                         
   LCOR   =        T    correct aug charges                                     
   LPAW   =        T    paw PP                                                  
   EAUG   =  416.230                                                            
   DEXC   =    0.000                                                            
   RMAX   =    2.653    core radius for proj-oper                               
   RAUG   =    1.300    factor for augmentation sphere                          
   RDEP   =    2.734    radius for radial grids                                 
   RDEPT  =    2.103    core radius for aug-charge                              
                                                                                
   Atomic configuration                                                         
   12 entries                                                                   
     n  l   j            E        occ.                                          
     1  0  0.50    -24164.6631   2.0000                                         
     2  0  0.50     -3530.9218   2.0000                                         
     2  1  1.50     -3165.6822   6.0000                                         
     3  0  0.50      -639.4577   2.0000                                         
     3  1  1.50      -519.4532   6.0000                                         
     3  2  2.50      -328.9757  10.0000                                         
     4  0  0.50       -88.7014   2.0000                                         
     4  1  1.50       -54.4540   6.0000                                         
     4  2  2.50        -6.6878   9.0000                                         
     5  0  0.50        -4.3543   1.0000                                         
     5  1  0.50        -1.3606   0.0000                                         
     4  3  2.50        -1.3606   0.0000                                         
   Description                                                                  
     l       E           TYP  RCUT    TYP  RCUT                                 
     2     -6.6878251     23  2.400                                             
     2     -8.0484077     23  2.400                                             
     0     -4.3542939     23  2.400                                             
     0      4.3406793     23  2.400                                             
     1     -4.0817478     23  2.600                                             
     1     15.8380318     23  2.600                                             
     3     -4.0817478     23  2.400                                             
  local pseudopotential read in
  partial core-charges read in
  partial kinetic energy density read in
  atomic valenz-charges read in
  non local Contribution for L=           2  read in
    real space projection operators read in
  non local Contribution for L=           2  read in
    real space projection operators read in
  non local Contribution for L=           0  read in
    real space projection operators read in
  non local Contribution for L=           0  read in
    real space projection operators read in
  non local Contribution for L=           1  read in
    real space projection operators read in
  non local Contribution for L=           1  read in
    real space projection operators read in
    PAW grid and wavefunctions read in
 
   number of l-projection  operators is LMAX  =           6
   number of lm-projection operators is LMMAX =          18
 
 POTCAR:    PAW_PBE C 08Apr2002                   
   VRHFIN =C: s2p2                                                              
   LEXCH  = PE                                                                  
   EATOM  =   147.1560 eV,   10.8157 Ry                                         
                                                                                
   TITEL  = PAW_PBE C 08Apr2002                                                 
   LULTRA =        F    use ultrasoft PP ?                                      
   IUNSCR =        1    unscreen: 0-lin 1-nonlin 2-no                           
   RPACOR =    1.200    partial core radius                                     
   POMASS =   12.011; ZVAL   =    4.000    mass and valenz                      
   RCORE  =    1.500    outmost cutoff radius                                   
   RWIGS  =    1.630; RWIGS  =    0.863    wigner-seitz radius (au A)           
   ENMAX  =  400.000; ENMIN  =  300.000 eV                                      
   ICORE  =        2    local potential                                         
   LCOR   =        T    correct aug charges                                     
   LPAW   =        T    paw PP                                                  
   EAUG   =  644.873                                                            
   DEXC   =    0.000                                                            
   RMAX   =    1.529    core radius for proj-oper                               
   RAUG   =    1.300    factor for augmentation sphere                          
   RDEP   =    1.501    radius for radial grids                                 
   RDEPT  =    1.300    core radius for aug-charge                              
                                                                                
   Atomic configuration                                                         
    4 entries                                                                   
     n  l   j            E        occ.                                          
     1  0  0.50      -273.3789   2.0000                                         
     2  0  0.50       -13.7508   2.0000                                         
     2  1  0.50        -5.2854   2.0000                                         
     3  2  1.50        -5.4423   0.0000                                         
   Description                                                                  
     l       E           TYP  RCUT    TYP  RCUT                                 
     0    -13.7508458     23  1.200                                             
     0     -8.2022199     23  1.200                                             
     1     -5.2854383     23  1.500                                             
     1     34.0145650     23  1.500                                             
     2     -5.4423304      7  1.500                                             
  local pseudopotential read in
  partial core-charges read in
  partial kinetic energy density read in
  atomic valenz-charges read in
  non local Contribution for L=           0  read in
    real space projection operators read in
  non local Contribution for L=           0  read in
    real space projection operators read in
  non local Contribution for L=           1  read in
    real space projection operators read in
  non local Contribution for L=           1  read in
    real space projection operators read in
    PAW grid and wavefunctions read in
 
   number of l-projection  operators is LMAX  =           4
   number of lm-projection operators is LMMAX =           8
 
 POTCAR:    PAW_PBE O 08Apr2002                   
   VRHFIN =O: s2p4                                                              
   LEXCH  = PE                                                                  
   EATOM  =   432.3788 eV,   31.7789 Ry                                         
                                                                                
   TITEL  = PAW_PBE O 08Apr2002                                                 
   LULTRA =        F    use ultrasoft PP ?                                      
   IUNSCR =        1    unscreen: 0-lin 1-nonlin 2-no                           
   RPACOR =    1.200    partial core radius                                     
   POMASS =   16.000; ZVAL   =    6.000    mass and valenz                      
   RCORE  =    1.520    outmost cutoff radius                                   
   RWIGS  =    1.550; RWIGS  =    0.820    wigner-seitz radius (au A)           
   ENMAX  =  400.000; ENMIN  =  300.000 eV                                      
   ICORE  =        2    local potential                                         
   LCOR   =        T    correct aug charges                                     
   LPAW   =        T    paw PP                                                  
   EAUG   =  605.392                                                            
   DEXC   =    0.000                                                            
   RMAX   =    1.553    core radius for proj-oper                               
   RAUG   =    1.300    factor for augmentation sphere                          
   RDEP   =    1.550    radius for radial grids                                 
   RDEPT  =    1.329    core radius for aug-charge                              
                                                                                
   Atomic configuration                                                         
    4 entries                                                                   
     n  l   j            E        occ.                                          
     1  0  0.50      -514.6923   2.0000                                         
     2  0  0.50       -23.9615   2.0000                                         
     2  1  0.50        -9.0305   4.0000                                         
     3  2  1.50        -9.5241   0.0000                                         
   Description                                                                  
     l       E           TYP  RCUT    TYP  RCUT                                 
     0    -23.9615318     23  1.200                                             
     0     -9.5240782     23  1.200                                             
     1     -9.0304911     23  1.520                                             
     1      8.1634956     23  1.520                                             
     2     -9.5240782      7  1.500                                             
  local pseudopotential read in
  partial core-charges read in
  partial kinetic energy density read in
  kinetic energy density of atom read in
  atomic valenz-charges read in
  non local Contribution for L=           0  read in
    real space projection operators read in
  non local Contribution for L=           0  read in
    real space projection operators read in
  non local Contribution for L=           1  read in
    real space projection operators read in
  non local Contribution for L=           1  read in
    real space projection operators read in
    PAW grid and wavefunctions read in
 
   number of l-projection  operators is LMAX  =           4
   number of lm-projection operators is LMMAX =           8
 
 Optimization of the real space projectors (new method)

 maximal supplied QI-value         = 14.36
 optimisation between [QCUT,QGAM] = [ 10.20, 20.39] = [ 29.12,116.47] Ry 
 Optimized for a Real-space Cutoff    1.51 Angstroem

   l    n(q)    QCUT    max X(q) W(low)/X(q) W(high)/X(q)  e(spline) 
   2      8    10.197    59.108    0.26E-03    0.14E-03    0.96E-07
   2      8    10.197    58.101    0.27E-03    0.14E-03    0.98E-07
   0      9    10.197   102.235    0.54E-04    0.60E-05    0.72E-07
   0      9    10.197    58.388    0.52E-04    0.60E-05    0.68E-07
   1      9    10.197    22.191    0.18E-03    0.25E-03    0.79E-07
   1      9    10.197    15.590    0.15E-03    0.21E-03    0.69E-07
 Optimization of the real space projectors (new method)

 maximal supplied QI-value         = 25.13
 optimisation between [QCUT,QGAM] = [ 10.05, 20.36] = [ 28.30,116.06] Ry 
 Optimized for a Real-space Cutoff    1.30 Angstroem

   l    n(q)    QCUT    max X(q) W(low)/X(q) W(high)/X(q)  e(spline) 
   0      8    10.053   115.676    0.49E-03    0.72E-03    0.18E-06
   0      8    10.053    87.132    0.49E-03    0.71E-03    0.18E-06
   1      7    10.053     4.429    0.32E-03    0.31E-03    0.18E-06
   1      7    10.053     2.733    0.23E-03    0.19E-03    0.20E-06
 Optimization of the real space projectors (new method)

 maximal supplied QI-value         = 24.76
 optimisation between [QCUT,QGAM] = [ 10.15, 20.30] = [ 28.85,115.39] Ry 
 Optimized for a Real-space Cutoff    1.38 Angstroem

   l    n(q)    QCUT    max X(q) W(low)/X(q) W(high)/X(q)  e(spline) 
   0      8    10.150    20.381    0.22E-03    0.32E-03    0.29E-06
   0      8    10.150    15.268    0.23E-03    0.35E-03    0.30E-06
   1      8    10.150     5.964    0.46E-03    0.53E-03    0.21E-06
   1      8    10.150     5.382    0.38E-03    0.45E-03    0.19E-06

 ----------------------------------------------------------------------------- 
|                                                                             |
|  ADVICE TO THIS USER RUNNING 'VASP/VAMP'   (HEAR YOUR MASTER'S VOICE ...):  |
|                                                                             |
|      You enforced a specific xc-type in the INCAR file,                     |
|      a different type was found on the POTCAR file                          |
|          I HOPE YOU KNOW, WHAT YOU ARE  DOING                               |
|                                                                             |
 ----------------------------------------------------------------------------- 

  PAW_PBE Pd 04Jan2005                  :
 energy of atom  1       EATOM= -809.7530
 kinetic energy error for atom=    0.0091 (will be added to EATOM!!)
  PAW_PBE C 08Apr2002                   :
 energy of atom  2       EATOM= -147.1560
 kinetic energy error for atom=    0.0288 (will be added to EATOM!!)
  PAW_PBE O 08Apr2002                   :
 energy of atom  3       EATOM= -432.3788
 kinetic energy error for atom=    0.1156 (will be added to EATOM!!)
 
 
 POSCAR: Pd55PES                                 
  positions in cartesian coordinates
  No initial velocities read in
 exchange correlation table for  LEXCH =        9
   RHO(1)=    0.500       N(1)  =     2000
   RHO(2)=  100.500       N(2)  =     4000
 


--------------------------------------------------------------------------------------------------------


 ion  position               nearest neighbor table
   1  0.446  0.328  0.417-   3 3.25   5 3.25   7 3.36  15 3.36  29 3.42  28 3.42
   2  0.672  0.554  0.417-  26 3.25  30 3.25  17 3.36   9 3.36  47 3.42  49 3.42
   3  0.554  0.328  0.417-   1 3.25   5 3.25   7 3.36  11 3.36  29 3.42  21 3.42
   4  0.328  0.554  0.417-  32 3.25  22 3.25  13 3.36   8 3.36  43 3.42  48 3.42
   5  0.500  0.383  0.340-   1 3.25   3 3.25  11 3.36  15 3.36  21 3.42  28 3.42
   6  0.500  0.383  0.660-  24 3.25  19 3.25  16 3.36  12 3.36  42 3.42  44 3.42
   7  0.500  0.276  0.500-  29 3.24   3 3.36   1 3.36  19 3.36  24 3.36
   8  0.276  0.500  0.500-  48 3.24  22 3.36  40 3.36   4 3.36  25 3.36
   9  0.724  0.500  0.500-  49 3.24  26 3.36  45 3.36   2 3.36  20 3.36
  10  0.500  0.724  0.500-  55 3.24  27 3.36  23 3.36  46 3.36  41 3.36
  11  0.612  0.388  0.342-  21 3.24   5 3.36   3 3.36  30 3.36  26 3.36
  12  0.612  0.388  0.658-  42 3.24  24 3.36  45 3.36   6 3.36  31 3.36
  13  0.388  0.612  0.342-  43 3.24  32 3.36  50 3.36   4 3.36  27 3.36
  14  0.388  0.612  0.658-  53 3.24  25 3.36  33 3.36  51 3.36  46 3.36
  15  0.388  0.388  0.342-  28 3.24   5 3.36   1 3.36  32 3.36  22 3.36
  16  0.388  0.388  0.658-  44 3.24  19 3.36  40 3.36   6 3.36  33 3.36
  17  0.612  0.612  0.342-  47 3.24  30 3.36  50 3.36   2 3.36  23 3.36
  18  0.612  0.612  0.658-  54 3.24  31 3.36  20 3.36  51 3.36  41 3.36
  19  0.446  0.328  0.583-   6 3.25  24 3.25  16 3.36   7 3.36  44 3.42  29 3.42
  20  0.672  0.554  0.583-  31 3.25  45 3.25  18 3.36   9 3.36  54 3.42  49 3.42
  21  0.558  0.442  0.418-  11 3.24   5 3.42   3 3.42  30 3.42  26 3.42
  22  0.328  0.446  0.417-   4 3.25  32 3.25   8 3.36  15 3.36  48 3.42  28 3.42
  23  0.554  0.672  0.417-  27 3.25  50 3.25  10 3.36  17 3.36  55 3.42  47 3.42
  24  0.554  0.328  0.583-   6 3.25  19 3.25  12 3.36   7 3.36  42 3.42  29 3.42
  25  0.328  0.554  0.583-  33 3.25  40 3.25  14 3.36   8 3.36  53 3.42  48 3.42
  26  0.672  0.446  0.417-   2 3.25  30 3.25   9 3.36  11 3.36  49 3.42  21 3.42
  27  0.446  0.672  0.417-  23 3.25  50 3.25  10 3.36  13 3.36  55 3.42  43 3.42
  28  0.442  0.442  0.418-  15 3.24   5 3.42   1 3.42  32 3.42  22 3.42
  29  0.500  0.384  0.500-   7 3.24   3 3.42   1 3.42  24 3.42  19 3.42
  30  0.617  0.500  0.340-   2 3.25  26 3.25  17 3.36  11 3.36  47 3.42  21 3.42
  31  0.617  0.500  0.660-  20 3.25  45 3.25  18 3.36  12 3.36  54 3.42  42 3.42
  32  0.383  0.500  0.340-   4 3.25  22 3.25  13 3.36  15 3.36  43 3.42  28 3.42
  33  0.383  0.500  0.660-  25 3.25  40 3.25  14 3.36  16 3.36  53 3.42  44 3.42
  34  0.383  0.383  0.500-
  35  0.617  0.617  0.500-
  36  0.617  0.383  0.500-
  37  0.383  0.617  0.500-
  38  0.500  0.500  0.335-
  39  0.500  0.500  0.665-
  40  0.328  0.446  0.583-  33 3.25  25 3.25  16 3.36   8 3.36  44 3.42  48 3.42
  41  0.554  0.672  0.583-  46 3.25  51 3.25  10 3.36  18 3.36  54 3.42  55 3.42
  42  0.558  0.442  0.582-  12 3.24   6 3.42  24 3.42  31 3.42  45 3.42
  43  0.442  0.558  0.418-  13 3.24   4 3.42  32 3.42  27 3.42  50 3.42
  44  0.442  0.442  0.582-  16 3.24   6 3.42  19 3.42  33 3.42  40 3.42
  45  0.672  0.446  0.583-  20 3.25  31 3.25   9 3.36  12 3.36  49 3.42  42 3.42
  46  0.446  0.672  0.583-  41 3.25  51 3.25  10 3.36  14 3.36  53 3.42  55 3.42
  47  0.558  0.558  0.418-  17 3.24   2 3.42  30 3.42  23 3.42  50 3.42
  48  0.384  0.500  0.500-   8 3.24   4 3.42  22 3.42  25 3.42  40 3.42
  49  0.616  0.500  0.500-   9 3.24   2 3.42  26 3.42  20 3.42  45 3.42
  50  0.500  0.617  0.340-  27 3.25  23 3.25  13 3.36  17 3.36  43 3.42  47 3.42
  51  0.500  0.617  0.660-  41 3.25  46 3.25  14 3.36  18 3.36  53 3.42  54 3.42
  52  0.500  0.500  0.500-
  53  0.442  0.558  0.582-  14 3.24  25 3.42  33 3.42  51 3.42  46 3.42
  54  0.558  0.558  0.582-  18 3.24  31 3.42  20 3.42  51 3.42  41 3.42
  55  0.500  0.616  0.500-  10 3.24  23 3.42  27 3.42  41 3.42  46 3.42
  56  0.192  0.495  0.460-  57 1.13
  57  0.155  0.494  0.455-  56 1.13
 
  LATTYP: Found a simple cubic cell.
 ALAT       =    30.0000000000
  
  Lattice vectors:
  
 A1 = (  30.0000000000,   0.0000000000,   0.0000000000)
 A2 = (   0.0000000000,  30.0000000000,   0.0000000000)
 A3 = (   0.0000000000,   0.0000000000,  30.0000000000)


Analysis of symmetry for initial positions (statically):
=====================================================================
 Subroutine PRICEL returns:
 Original cell was already a primitive cell.
 

 Routine SETGRP: Setting up the symmetry group for a 
 simple cubic supercell.


 Subroutine GETGRP returns: Found  1 space group operations
 (whereof  1 operations were pure point group operations)
 out of a pool of 48 trial point group operations.


The static configuration has the point symmetry C_1 .


Analysis of symmetry for dynamics (positions and initial velocities):
=====================================================================
 Subroutine PRICEL returns:
 Original cell was already a primitive cell.
 

 Routine SETGRP: Setting up the symmetry group for a 
 simple cubic supercell.


 Subroutine GETGRP returns: Found  1 space group operations
 (whereof  1 operations were pure point group operations)
 out of a pool of 48 trial point group operations.


The dynamic configuration has the point symmetry C_1 .


Analysis of constrained symmetry for selective dynamics:
=====================================================================
 Subroutine PRICEL returns:
 Original cell was already a primitive cell.
 

 Routine SETGRP: Setting up the symmetry group for a 
 simple cubic supercell.


 Subroutine GETGRP returns: Found  1 space group operations
 (whereof  1 operations were pure point group operations)
 out of a pool of 48 trial point group operations.


The constrained configuration has the point symmetry C_1 .


 Subroutine INISYM returns: Found  1 space group operations
 (whereof  1 operations are pure point group operations),
 and found     1 'primitive' translations

 
 
 KPOINTS: K-points                                

Automatic generation of k-mesh.
Space group operators:
 irot       det(A)        alpha          n_x          n_y          n_z        tau_x        tau_y        tau_z
    1     1.000000     0.000000     1.000000     0.000000     0.000000     0.000000     0.000000     0.000000
 
 Subroutine IBZKPT returns following result:
 ===========================================
 
 Found      1 irreducible k-points:
 
 Following reciprocal coordinates:
            Coordinates               Weight
  0.000000  0.000000  0.000000      1.000000
 
 Following cartesian coordinates:
            Coordinates               Weight
  0.000000  0.000000  0.000000      1.000000
 


--------------------------------------------------------------------------------------------------------




 Dimension of arrays:
   k-points           NKPTS =      1   k-points in BZ     NKDIM =      1   number of bands    NBANDS=    336
   number of dos      NEDOS =    301   number of ions     NIONS =     57
   non local maximal  LDIM  =      6   non local SUM 2l+1 LMDIM =     18
   total plane-waves  NPLWV = ******
   max r-space proj   IRMAX =   1847   max aug-charges    IRDMAX=   6262
   dimension x,y,z NGX =   150 NGY =  150 NGZ =  150
   dimension x,y,z NGXF=   300 NGYF=  300 NGZF=  300
   support grid    NGXF=   300 NGYF=  300 NGZF=  300
   ions per type =              55   1   1
   NGX,Y,Z   is equivalent  to a cutoff of   8.31,  8.31,  8.31 a.u.
   NGXF,Y,Z  is equivalent  to a cutoff of  16.62, 16.62, 16.62 a.u.

 SYSTEM =  6_Pd100_top_free_z(O)                   
 POSCAR =  Pd55PES                                 

 Startparameter for this run:
   NWRITE =      2    write-flag & timer
   PREC   = normal    normal or accurate (medium, high low for compatibility)
   ISTART =      0    job   : 0-new  1-cont  2-samecut
   ICHARG =      2    charge: 1-file 2-atom 10-const
   ISPIN  =      1    spin polarized calculation?
   LNONCOLLINEAR =      F non collinear calculations
   LSORBIT =      F    spin-orbit coupling
   INIWAV =      1    electr: 0-lowe 1-rand  2-diag
   LASPH  =      F    aspherical Exc in radial PAW
   METAGGA=      F    non-selfconsistent MetaGGA calc.

 Electronic Relaxation 1
   ENCUT  =  400.0 eV  29.40 Ry    5.42 a.u.  48.92 48.92 48.92*2*pi/ulx,y,z
   ENINI  =  400.0     initial cutoff
   ENAUG  =  644.9 eV  augmentation charge cutoff
   NELM   =    100;   NELMIN=  6; NELMDL= -5     # of ELM steps 
   EDIFF  = 0.1E-03   stopping-criterion for ELM
   LREAL  =      T    real-space projection
   NLSPLINE    = F    spline interpolate recip. space projectors
   LCOMPAT=      F    compatible to vasp.4.4
   GGA_COMPAT  = T    GGA compatible to vasp.4.4-vasp.4.6
   LMAXPAW     = -100 max onsite density
   LMAXMIX     =    2 max onsite mixed and CHGCAR
   VOSKOWN=      0    Vosko Wilk Nusair interpolation
   ROPT   =   -0.00050  -0.00050  -0.00050
 Ionic relaxation
   EDIFFG = -.5E-01   stopping-criterion for IOM
   NSW    =      0    number of steps for IOM
   NBLOCK =      1;   KBLOCK =      1    inner block; outer block 
   IBRION =     -1    ionic relax: 0-MD 1-quasi-New 2-CG
   NFREE  =      1    steps in history (QN), initial steepest desc. (CG)
   ISIF   =      2    stress and relaxation
   IWAVPR =     10    prediction:  0-non 1-charg 2-wave 3-comb
   ISYM   =      2    0-nonsym 1-usesym 2-fastsym
   LCORR  =      T    Harris-Foulkes like correction to forces

   POTIM  = 0.5000    time-step for ionic-motion
   TEIN   =    0.0    initial temperature
   TEBEG  =    0.0;   TEEND  =   0.0 temperature during run
   SMASS  =  -3.00    Nose mass-parameter (am)
   estimated Nose-frequenzy (Omega)   =  0.10E-29 period in steps =****** mass=  -0.206E-25a.u.
   SCALEE = 1.0000    scale energy and forces
   NPACO  =    256;   APACO  = 16.0  distance and # of slots for P.C.
   PSTRESS=    0.0 pullay stress

  Mass of Ions in am
   POMASS = 106.42 12.01 16.00
  Ionic Valenz
   ZVAL   =  10.00  4.00  6.00
  Atomic Wigner-Seitz radii
   RWIGS  =  -1.00 -1.00 -1.00
  virtual crystal weights 
   VCA    =   1.00  1.00  1.00
   NELECT =     560.0000    total number of electrons
   NUPDOWN=      -1.0000    fix difference up-down

 DOS related values:
   EMIN   =  10.00;   EMAX   =-10.00  energy-range for DOS
   EFERMI =   0.00
   ISMEAR =     2;   SIGMA  =   0.20  broadening in eV -4-tet -1-fermi 0-gaus

 Electronic relaxation 2 (details)
   IALGO  =     68    algorithm
   LDIAG  =      T    sub-space diagonalisation (order eigenvalues)
   LSUBROT=      F    optimize rotation matrix (better conditioning)
   TURBO    =      0    0=normal 1=particle mesh
   IRESTART =      0    0=no restart 2=restart with 2 vectors
   NREBOOT  =      0    no. of reboots
   NMIN     =      0    reboot dimension
   EREF     =   0.00    reference energy to select bands
   IMIX   =      4    mixing-type and parameters
     AMIX     =   0.40;   BMIX     =  1.00
     AMIX_MAG =   1.60;   BMIX_MAG =  1.00
     AMIN     =   0.10
     WC   =   100.;   INIMIX=   1;  MIXPRE=   1;  MAXMIX= -45

 Intra band minimization:
   WEIMIN = 0.0000     energy-eigenvalue tresh-hold
   EBREAK =  0.74E-07  absolut break condition
   DEPER  =   0.30     relativ break condition  

   TIME   =   0.40     timestep for ELM

  volume/ion in A,a.u.               =     473.68      3196.58
  Fermi-wavevector in a.u.,A,eV,Ry     =   0.449797  0.849992  2.752691  0.202317
  Thomas-Fermi vector in A             =   1.430086
 
 Write flags
   LWAVE        =      F    write WAVECAR
   LDOWNSAMPLE  =      F    k-point downsampling of WAVECAR
   LCHARG       =      F    write CHGCAR
   LVTOT        =      F    write LOCPOT, total local potential
   LVHAR        =      F    write LOCPOT, Hartree potential only
   LELF         =      F    write electronic localiz. function (ELF)
   LORBIT       =      0    0 simple, 1 ext, 2 COOP (PROOUT), +10 PAW based schemes


 Dipole corrections
   LMONO  =      F    monopole corrections only (constant potential shift)
   LDIPOL =      F    correct potential (dipole corrections)
   IDIPOL =      0    1-x, 2-y, 3-z, 4-all directions 
   EPSILON=  1.0000000 bulk dielectric constant

 Exchange correlation treatment:
   GGA     =    RP    GGA type
   LEXCH   =     9    internal setting for exchange type
   VOSKOWN=      0    Vosko Wilk Nusair interpolation
   LHFCALC =     F    Hartree Fock is set to
   LHFONE  =     F    Hartree Fock one center treatment
   AEXX    =    0.0000 exact exchange contribution

 Linear response parameters
   LEPSILON=     F    determine dielectric tensor
   LRPA    =     F    only Hartree local field effects (RPA)
   LNABLA  =     F    use nabla operator in PAW spheres
   LVEL    =     F    velocity operator in full k-point grid
   LINTERFAST=   F  fast interpolation
   KINTER  =     0    interpolate to denser k-point grid
   CSHIFT  =0.1000    complex shift for real part using Kramers Kronig
   OMEGAMAX=  -1.0    maximum frequency
   DEG_THRESHOLD= 0.2000000E-02 threshold for treating states as degnerate
   RTIME   =   -0.100 relaxation time in fs
  (WPLASMAI=    0.000 imaginary part of plasma frequency in eV, 0.658/RTIME)
   DFIELD  = 0.0000000 0.0000000 0.0000000 field for delta impulse in time
 
 Orbital magnetization related:
   ORBITALMAG=     F  switch on orbital magnetization
   LCHIMAG   =     F  perturbation theory with respect to B field
   DQ        =  0.001000  dq finite difference perturbation B field
   LLRAUG    =     F  two centre corrections for induced B field



--------------------------------------------------------------------------------------------------------


 Static calculation
 charge density and potential will be updated during run
 non-spin polarized calculation
 RMM-DIIS sequential band-by-band and
  variant of blocked Davidson during initial phase
 perform sub-space diagonalisation
    before iterative eigenvector-optimisation
 modified Broyden-mixing scheme, WC =      100.0
 initial mixing is a Kerker type mixing with AMIX =  0.4000 and BMIX =      1.0000
 Hartree-type preconditioning will be used
 using additional bands           56
 real space projection scheme for non local part
 use partial core corrections
 calculate Harris-corrections to forces 
   (improved forces if not selfconsistent)
 use gradient corrections 
 use of overlap-Matrix (Vanderbilt PP)
 Methfessel and Paxton  Order N= 2 SIGMA  =   0.20


--------------------------------------------------------------------------------------------------------


  energy-cutoff  :      400.00
  volume of cell :    27000.00
      direct lattice vectors                 reciprocal lattice vectors
    30.000000000  0.000000000  0.000000000     0.033333333  0.000000000  0.000000000
     0.000000000 30.000000000  0.000000000     0.000000000  0.033333333  0.000000000
     0.000000000  0.000000000 30.000000000     0.000000000  0.000000000  0.033333333

  length of vectors
    30.000000000 30.000000000 30.000000000     0.033333333  0.033333333  0.033333333


 
 k-points in units of 2pi/SCALE and weight: K-points                                
   0.00000000  0.00000000  0.00000000       1.000
 
 k-points in reciprocal lattice and weights: K-points                                
   0.00000000  0.00000000  0.00000000       1.000
 
 position of ions in fractional coordinates (direct lattice) 
   0.44576020  0.32826710  0.41691983
   0.67173288  0.55423978  0.41691983
   0.55423980  0.32826710  0.41691983
   0.32826712  0.55423978  0.41691983
   0.50000000  0.38250690  0.34021317
   0.50000000  0.38250690  0.65978680
   0.50000000  0.27609440  0.50000000
   0.27609443  0.49999998  0.50000000
   0.72390557  0.49999998  0.50000000
   0.50000000  0.72390555  0.50000000
   0.61195280  0.38804720  0.34167483
   0.61195280  0.38804720  0.65832513
   0.38804722  0.61195278  0.34167483
   0.38804722  0.61195278  0.65832513
   0.38804720  0.38804720  0.34167483
   0.38804720  0.38804720  0.65832513
   0.61195278  0.61195278  0.34167483
   0.61195278  0.61195278  0.65832513
   0.44576020  0.32826710  0.58308023
   0.67173288  0.55423978  0.58308023
   0.55791699  0.44208301  0.41809300
   0.32826705  0.44576024  0.41691983
   0.55423973  0.67173293  0.41691983
   0.55423980  0.32826710  0.58308023
   0.32826712  0.55423978  0.58308023
   0.67173295  0.44576024  0.41691983
   0.44576027  0.67173293  0.41691983
   0.44208301  0.44208301  0.41809300
   0.50000000  0.38416601  0.50000000
   0.61749315  0.50000005  0.34021317
   0.61749315  0.50000005  0.65978680
   0.38250685  0.50000005  0.34021317
   0.38250685  0.50000005  0.65978680
   0.38317830  0.38317830  0.50000000
   0.61682172  0.61682172  0.50000000
   0.61682170  0.38317830  0.50000000
   0.38317828  0.61682172  0.50000000
   0.50000000  0.50000000  0.33478917
   0.50000000  0.50000000  0.66521087
   0.32826705  0.44576024  0.58308023
   0.55423973  0.67173293  0.58308023
   0.55791699  0.44208301  0.58190703
   0.44208298  0.55791702  0.41809300
   0.44208301  0.44208301  0.58190703
   0.67173295  0.44576024  0.58308023
   0.44576027  0.67173293  0.58308023
   0.55791702  0.55791702  0.41809300
   0.38416599  0.50000002  0.50000000
   0.61583401  0.50000002  0.50000000
   0.50000000  0.61749319  0.34021317
   0.50000000  0.61749319  0.65978680
   0.50000000  0.50000000  0.50000000
   0.44208298  0.55791702  0.58190703
   0.55791702  0.55791702  0.58190703
   0.50000000  0.61583404  0.50000000
   0.19202247  0.49473460  0.45972947
   0.15474520  0.49409727  0.45485517
 
 position of ions in cartesian coordinates  (Angst):
  13.37280588  9.84801292 12.50759500
  20.15198637 16.62719342 12.50759500
  16.62719412  9.84801292 12.50759500
   9.84801363 16.62719342 12.50759500
  15.00000000 11.47520705 10.20639500
  15.00000000 11.47520705 19.79360400
  15.00000000  8.28283206 15.00000000
   8.28283277 14.99999929 15.00000000
  21.71716723 14.99999929 15.00000000
  15.00000000 21.71716652 14.99999999
  18.35858397 11.64141603 10.25024500
  18.35858397 11.64141603 19.74975399
  11.64141674 18.35858326 10.25024500
  11.64141674 18.35858326 19.74975400
  11.64141603 11.64141603 10.25024500
  11.64141603 11.64141603 19.74975400
  18.35858326 18.35858326 10.25024500
  18.35858326 18.35858326 19.74975400
  13.37280588  9.84801291 17.49240700
  20.15198638 16.62719341 17.49240700
  16.73750985 13.26249015 12.54279000
   9.84801151 13.37280729 12.50759500
  16.62719200 20.15198779 12.50759500
  16.62719412  9.84801292 17.49240700
   9.84801363 16.62719342 17.49240700
  20.15198849 13.37280729 12.50759500
  13.37280800 20.15198779 12.50759500
  13.26249015 13.26249015 12.54279000
  15.00000000 11.52498029 15.00000000
  18.52479437 15.00000140 10.20639500
  18.52479437 15.00000141 19.79360400
  11.47520562 15.00000141 10.20639501
  11.47520563 15.00000141 19.79360400
  11.49534898 11.49534898 15.00000000
  18.50465172 18.50465172 15.00000000
  18.50465102 11.49534898 15.00000000
  11.49534828 18.50465172 15.00000000
  15.00000000 15.00000000 10.04367500
  15.00000000 15.00000000 19.95632599
   9.84801151 13.37280729 17.49240700
  16.62719200 20.15198779 17.49240700
  16.73750985 13.26249015 17.45721100
  13.26248944 16.73751056 12.54279001
  13.26249015 13.26249015 17.45721100
  20.15198849 13.37280729 17.49240699
  13.37280800 20.15198779 17.49240700
  16.73751056 16.73751056 12.54279000
  11.52497959 15.00000071 15.00000000
  18.47502041 15.00000071 15.00000000
  14.99999999 18.52479579 10.20639500
  15.00000000 18.52479578 19.79360400
  15.00000000 15.00000000 15.00000000
  13.26248944 16.73751057 17.45721101
  16.73751056 16.73751057 17.45721100
  15.00000000 18.47502112 15.00000000
   5.76067400 14.84203800 13.79188400
   4.64235600 14.82291800 13.64565500
 


--------------------------------------------------------------------------------------------------------


 k-point  1 :   0.0000 0.0000 0.0000  plane waves:  490521

 maximum and minimum number of plane-waves per node :    490521   490521

 maximum number of plane-waves:    490521
 maximum index in each direction: 
   IXMAX=   48   IYMAX=   48   IZMAX=   48
   IXMIN=  -48   IYMIN=  -48   IZMIN=  -48


 serial   3D FFT for wavefunctions
 parallel 3D FFT for charge:
    minimum data exchange during FFTs selected (reduces bandwidth)


 total amount of memory used by VASP MPI-rank0  5486941. kBytes
=======================================================================

   base      :      30000. kBytes
   nonlr-proj:      17126. kBytes
   fftplans  :     924480. kBytes
   grid      :    1872000. kBytes
   one-center:        886. kBytes
   wavefun   :    2642449. kBytes
 
     INWAV:  cpu time    0.0001: real time    0.0004
 Broyden mixing: mesh for mixing (old mesh)
   NGX = 97   NGY = 97   NGZ = 97
  (NGX  =300   NGY  =300   NGZ  =300)
  gives a total of 912673 points

 initial charge density was supplied:
 charge density of overlapping atoms calculated
 number of electron     560.0000000 magnetization 
 keeping initial charge density in first step


--------------------------------------------------------------------------------------------------------


 Maximum index for non-local projection operator         1763
 Maximum index for augmentation-charges         5898 (set IRDMAX)


--------------------------------------------------------------------------------------------------------


 First call to EWALD:  gamma=   0.059
 Maximum number of real-space cells 3x 3x 3
 Maximum number of reciprocal cells 3x 3x 3

    FEWALD:  cpu time    0.0148: real time    0.0148


--------------------------------------- Iteration      1(   1)  ---------------------------------------


    POTLOK:  cpu time   13.9900: real time   13.9940
    SETDIJ:  cpu time    0.1170: real time    0.1170
     EDDAV:  cpu time  361.8373: real time  361.9072
       DOS:  cpu time    0.0013: real time    0.0013
    --------------------------------------------
      LOOP:  cpu time  375.9456: real time  376.0194

 eigenvalue-minimisations  :   688
 total energy-change (2. order) : 0.4379983E+04  (-0.1004834E+05)
 number of electron     560.0000000 magnetization 
 augmentation part      560.0000000 magnetization 

 Free energy of the ion-electron system (eV)
  ---------------------------------------------------
  alpha Z        PSCENC =        75.25431677
  Ewald energy   TEWEN  =    136782.87328028
  -Hartree energ DENC   =   -180151.26324086
  -exchange      EXHF   =         0.00000000
  -V(xc)+E(xc)   XCENC  =     -1704.10301260
  PAW double counting   =     44873.02882129   -41398.84523641
  entropy T*S    EENTRO =        -0.01046741
  eigenvalues    EBANDS =       816.54350199
  atomic energy  EATOM  =     45086.50549395
  Solvation  Ediel_sol  =         0.00000000
  ---------------------------------------------------
  free energy    TOTEN  =      4379.98345701 eV

  energy without entropy =     4379.99392442  energy(sigma->0) =     4379.98607386


--------------------------------------------------------------------------------------------------------




--------------------------------------- Iteration      1(   2)  ---------------------------------------


     EDDAV:  cpu time  584.7829: real time  584.8365
       DOS:  cpu time    0.0013: real time    0.0013
    --------------------------------------------
      LOOP:  cpu time  584.7842: real time  584.8377

 eigenvalue-minimisations  :  1224
 total energy-change (2. order) :-0.2369128E+04  (-0.2129631E+04)
 number of electron     560.0000000 magnetization 
 augmentation part      560.0000000 magnetization 

 Free energy of the ion-electron system (eV)
  ---------------------------------------------------
  alpha Z        PSCENC =        75.25431677
  Ewald energy   TEWEN  =    136782.87328028
  -Hartree energ DENC   =   -180151.26324086
  -exchange      EXHF   =         0.00000000
  -V(xc)+E(xc)   XCENC  =     -1704.10301260
  PAW double counting   =     44873.02882129   -41398.84523641
  entropy T*S    EENTRO =        -0.01802815
  eigenvalues    EBANDS =     -1552.57659736
  atomic energy  EATOM  =     45086.50549395
  Solvation  Ediel_sol  =         0.00000000
  ---------------------------------------------------
  free energy    TOTEN  =      2010.85579692 eV

  energy without entropy =     2010.87382507  energy(sigma->0) =     2010.86030395


--------------------------------------------------------------------------------------------------------




--------------------------------------- Iteration      1(   3)  ---------------------------------------


     EDDAV:  cpu time  494.3300: real time  494.3792
       DOS:  cpu time    0.0012: real time    0.0012
    --------------------------------------------
      LOOP:  cpu time  494.3311: real time  494.3804

 eigenvalue-minimisations  :   992
 total energy-change (2. order) :-0.1778360E+04  (-0.1672960E+04)
 number of electron     560.0000000 magnetization 
 augmentation part      560.0000000 magnetization 

 Free energy of the ion-electron system (eV)
  ---------------------------------------------------
  alpha Z        PSCENC =        75.25431677
  Ewald energy   TEWEN  =    136782.87328028
  -Hartree energ DENC   =   -180151.26324086
  -exchange      EXHF   =         0.00000000
  -V(xc)+E(xc)   XCENC  =     -1704.10301260
  PAW double counting   =     44873.02882129   -41398.84523641
  entropy T*S    EENTRO =        -0.01444766
  eigenvalues    EBANDS =     -3330.94023845
  atomic energy  EATOM  =     45086.50549395
  Solvation  Ediel_sol  =         0.00000000
  ---------------------------------------------------
  free energy    TOTEN  =       232.49573632 eV

  energy without entropy =      232.51018398  energy(sigma->0) =      232.49934823


--------------------------------------------------------------------------------------------------------




--------------------------------------- Iteration      1(   4)  ---------------------------------------


     EDDAV:  cpu time  422.8184: real time  422.8588
       DOS:  cpu time    0.0012: real time    0.0012
    --------------------------------------------
      LOOP:  cpu time  422.8196: real time  422.8600

 eigenvalue-minimisations  :   832
 total energy-change (2. order) :-0.3680020E+03  (-0.3126915E+03)
 number of electron     560.0000000 magnetization 
 augmentation part      560.0000000 magnetization 

 Free energy of the ion-electron system (eV)
  ---------------------------------------------------
  alpha Z        PSCENC =        75.25431677
  Ewald energy   TEWEN  =    136782.87328028
  -Hartree energ DENC   =   -180151.26324086
  -exchange      EXHF   =         0.00000000
  -V(xc)+E(xc)   XCENC  =     -1704.10301260
  PAW double counting   =     44873.02882129   -41398.84523641
  entropy T*S    EENTRO =        -0.00784670
  eigenvalues    EBANDS =     -3698.94879623
  atomic energy  EATOM  =     45086.50549395
  Solvation  Ediel_sol  =         0.00000000
  ---------------------------------------------------
  free energy    TOTEN  =      -135.50622050 eV

  energy without entropy =     -135.49837380  energy(sigma->0) =     -135.50425883


--------------------------------------------------------------------------------------------------------




--------------------------------------- Iteration      1(   5)  ---------------------------------------


     EDDAV:  cpu time  517.9025: real time  517.9304
       DOS:  cpu time    0.0014: real time    0.0014
    CHARGE:  cpu time   25.0389: real time   25.0390
    MIXING:  cpu time    0.4351: real time    0.4351
    --------------------------------------------
      LOOP:  cpu time  543.3779: real time  543.4059

 eigenvalue-minimisations  :  1048
 total energy-change (2. order) :-0.4335948E+02  (-0.3597954E+02)
 number of electron     559.9999825 magnetization 
 augmentation part      245.3035890 magnetization 

 Broyden mixing:
  rms(total) = 0.13796E+01    rms(broyden)= 0.13786E+01
  rms(prec ) = 0.14851E+01
  weight for this iteration     100.00

 Free energy of the ion-electron system (eV)
  ---------------------------------------------------
  alpha Z        PSCENC =        75.25431677
  Ewald energy   TEWEN  =    136782.87328028
  -Hartree energ DENC   =   -180151.26324086
  -exchange      EXHF   =         0.00000000
  -V(xc)+E(xc)   XCENC  =     -1704.10301260
  PAW double counting   =     44873.02882129   -41398.84523641
  entropy T*S    EENTRO =         0.51648633
  eigenvalues    EBANDS =     -3742.83261151
  atomic energy  EATOM  =     45086.50549395
  Solvation  Ediel_sol  =         0.00000000
  ---------------------------------------------------
  free energy    TOTEN  =      -178.86570275 eV

  energy without entropy =     -179.38218908  energy(sigma->0) =     -178.99482434


--------------------------------------------------------------------------------------------------------




--------------------------------------- Iteration      1(   6)  ---------------------------------------


    POTLOK:  cpu time   13.0222: real time   13.0228
    SETDIJ:  cpu time    0.1262: real time    0.1262
    EDDIAG:  cpu time   67.1452: real time   67.1481
  RMM-DIIS:  cpu time  191.4549: real time  191.4596
    ORTHCH:  cpu time   13.2716: real time   13.2716
       DOS:  cpu time    0.0015: real time    0.0015
    CHARGE:  cpu time   24.9229: real time   24.9229
    MIXING:  cpu time    0.4616: real time    0.4616
    --------------------------------------------
      LOOP:  cpu time  310.4060: real time  310.4142

 eigenvalue-minimisations  :   721
 total energy-change (2. order) : 0.1645399E+01  (-0.4554055E+01)
 number of electron     559.9999842 magnetization 
 augmentation part      240.8137648 magnetization 

 Broyden mixing:
  rms(total) = 0.16914E+01    rms(broyden)= 0.16912E+01
  rms(prec ) = 0.19430E+01
  weight for this iteration     100.00

 eigenvalues of (default mixing * dielectric matrix)
  average eigenvalue GAMMA=   0.4228
  0.4228

 Free energy of the ion-electron system (eV)
  ---------------------------------------------------
  alpha Z        PSCENC =        75.25431677
  Ewald energy   TEWEN  =    136782.87328028
  -Hartree energ DENC   =   -180571.31251209
  -exchange      EXHF   =         0.00000000
  -V(xc)+E(xc)   XCENC  =     -1697.78285788
  PAW double counting   =     45618.22247108   -42116.61702296
  entropy T*S    EENTRO =        -0.23506711
  eigenvalues    EBANDS =     -3354.12840549
  atomic energy  EATOM  =     45086.50549395
  Solvation  Ediel_sol  =         0.00000000
  ---------------------------------------------------
  free energy    TOTEN  =      -177.22030343 eV

  energy without entropy =     -176.98523633  energy(sigma->0) =     -177.16153666


--------------------------------------------------------------------------------------------------------




--------------------------------------- Iteration      1(   7)  ---------------------------------------


    POTLOK:  cpu time   13.0582: real time   13.0592
    SETDIJ:  cpu time    0.1231: real time    0.1231
    EDDIAG:  cpu time   67.2383: real time   67.2388
  RMM-DIIS:  cpu time  220.4749: real time  220.4799
    ORTHCH:  cpu time   13.3981: real time   13.3982
       DOS:  cpu time    0.0015: real time    0.0015
    CHARGE:  cpu time   24.9767: real time   24.9770
    MIXING:  cpu time    0.4856: real time    0.4856
    --------------------------------------------
      LOOP:  cpu time  339.7564: real time  339.7633

 eigenvalue-minimisations  :   830
 total energy-change (2. order) :-0.2888216E+01  (-0.1691677E+01)
 number of electron     559.9999808 magnetization 
 augmentation part      240.3934688 magnetization 

 Broyden mixing:
  rms(total) = 0.21350E+01    rms(broyden)= 0.21348E+01
  rms(prec ) = 0.25324E+01
  weight for this iteration     100.00

 eigenvalues of (default mixing * dielectric matrix)
  average eigenvalue GAMMA=   0.3997
  0.6431  0.1564

 Free energy of the ion-electron system (eV)
  ---------------------------------------------------
  alpha Z        PSCENC =        75.25431677
  Ewald energy   TEWEN  =    136782.87328028
  -Hartree energ DENC   =   -180675.90451314
  -exchange      EXHF   =         0.00000000
  -V(xc)+E(xc)   XCENC  =     -1697.90058730
  PAW double counting   =     45696.47481427   -42191.13766621
  entropy T*S    EENTRO =        -0.14380850
  eigenvalues    EBANDS =     -3256.12984953
  atomic energy  EATOM  =     45086.50549395
  Solvation  Ediel_sol  =         0.00000000
  ---------------------------------------------------
  free energy    TOTEN  =      -180.10851941 eV

  energy without entropy =     -179.96471091  energy(sigma->0) =     -180.07256728


--------------------------------------------------------------------------------------------------------




--------------------------------------- Iteration      1(   8)  ---------------------------------------


    POTLOK:  cpu time   13.2759: real time   13.2767
    SETDIJ:  cpu time    0.1250: real time    0.1250
    EDDIAG:  cpu time   69.3537: real time   69.3547
  RMM-DIIS:  cpu time  207.3738: real time  207.3794
    ORTHCH:  cpu time   13.3380: real time   13.3380
       DOS:  cpu time    0.0014: real time    0.0014
    CHARGE:  cpu time   25.4697: real time   25.4697
    MIXING:  cpu time    0.5118: real time    0.5118
    --------------------------------------------
      LOOP:  cpu time  329.4493: real time  329.4566

 eigenvalue-minimisations  :   780
 total energy-change (2. order) :-0.2729521E+01  (-0.6428053E+00)
 number of electron     559.9999822 magnetization 
 augmentation part      240.3205403 magnetization 

 Broyden mixing:
  rms(total) = 0.28746E+01    rms(broyden)= 0.28743E+01
  rms(prec ) = 0.34230E+01
  weight for this iteration     100.00

 eigenvalues of (default mixing * dielectric matrix)
  average eigenvalue GAMMA=   0.3427
  0.7592  0.1611  0.1079

 Free energy of the ion-electron system (eV)
  ---------------------------------------------------
  alpha Z        PSCENC =        75.25431677
  Ewald energy   TEWEN  =    136782.87328028
  -Hartree energ DENC   =   -180706.77743903
  -exchange      EXHF   =         0.00000000
  -V(xc)+E(xc)   XCENC  =     -1697.79216829
  PAW double counting   =     45765.51029705   -42256.76598098
  entropy T*S    EENTRO =        -0.09216345
  eigenvalues    EBANDS =     -3231.55367691
  atomic energy  EATOM  =     45086.50549395
  Solvation  Ediel_sol  =         0.00000000
  ---------------------------------------------------
  free energy    TOTEN  =      -182.83804062 eV

  energy without entropy =     -182.74587717  energy(sigma->0) =     -182.81499976


--------------------------------------------------------------------------------------------------------




--------------------------------------- Iteration      1(   9)  ---------------------------------------


    POTLOK:  cpu time   13.2362: real time   13.2384
    SETDIJ:  cpu time    0.1198: real time    0.1198
    EDDIAG:  cpu time   70.0840: real time   70.0917
  RMM-DIIS:  cpu time  196.8113: real time  196.8430
    ORTHCH:  cpu time   13.4272: real time   13.4286
       DOS:  cpu time    0.0014: real time    0.0014
    CHARGE:  cpu time   25.5722: real time   25.5725
    MIXING:  cpu time    0.5464: real time    0.5464
    --------------------------------------------
      LOOP:  cpu time  319.7984: real time  319.8418

 eigenvalue-minimisations  :   746
 total energy-change (2. order) : 0.2164051E+01  (-0.3872878E+00)
 number of electron     559.9999800 magnetization 
 augmentation part      241.0443279 magnetization 

 Broyden mixing:
  rms(total) = 0.27176E+01    rms(broyden)= 0.27173E+01
  rms(prec ) = 0.31757E+01
  weight for this iteration     100.00

 eigenvalues of (default mixing * dielectric matrix)
  average eigenvalue GAMMA=   0.2990
  0.8238  0.1436  0.1436  0.0852

 Free energy of the ion-electron system (eV)
  ---------------------------------------------------
  alpha Z        PSCENC =        75.25431677
  Ewald energy   TEWEN  =    136782.87328028
  -Hartree energ DENC   =   -180725.44407450
  -exchange      EXHF   =         0.00000000
  -V(xc)+E(xc)   XCENC  =     -1697.71485307
  PAW double counting   =     45808.16188399   -42297.40840214
  entropy T*S    EENTRO =        -0.05857522
  eigenvalues    EBANDS =     -3212.84305928
  atomic energy  EATOM  =     45086.50549395
  Solvation  Ediel_sol  =         0.00000000
  ---------------------------------------------------
  free energy    TOTEN  =      -180.67398921 eV

  energy without entropy =     -180.61541399  energy(sigma->0) =     -180.65934541


--------------------------------------------------------------------------------------------------------




--------------------------------------- Iteration      1(  10)  ---------------------------------------


    POTLOK:  cpu time   13.4046: real time   13.4078
    SETDIJ:  cpu time    0.1231: real time    0.1231
    EDDIAG:  cpu time   71.3380: real time   71.3393
  RMM-DIIS:  cpu time  195.3308: real time  195.3353
    ORTHCH:  cpu time   13.5236: real time   13.5237
       DOS:  cpu time    0.0015: real time    0.0015
    CHARGE:  cpu time   25.4930: real time   25.4932
    MIXING:  cpu time    0.5610: real time    0.5610
    --------------------------------------------
      LOOP:  cpu time  319.7756: real time  319.7848

 eigenvalue-minimisations  :   737
 total energy-change (2. order) : 0.2243470E+01  (-0.2255417E+00)
 number of electron     559.9999828 magnetization 
 augmentation part      241.2422509 magnetization 

 Broyden mixing:
  rms(total) = 0.19933E+01    rms(broyden)= 0.19930E+01
  rms(prec ) = 0.23009E+01
  weight for this iteration     100.00

 eigenvalues of (default mixing * dielectric matrix)
  average eigenvalue GAMMA=   0.2799
  0.8992  0.1623  0.1623  0.0957  0.0797

 Free energy of the ion-electron system (eV)
  ---------------------------------------------------
  alpha Z        PSCENC =        75.25431677
  Ewald energy   TEWEN  =    136782.87328028
  -Hartree energ DENC   =   -180748.62213132
  -exchange      EXHF   =         0.00000000
  -V(xc)+E(xc)   XCENC  =     -1697.60977287
  PAW double counting   =     45837.17834237   -42325.11417106
  entropy T*S    EENTRO =        -0.19423200
  eigenvalues    EBANDS =     -3188.70164513
  atomic energy  EATOM  =     45086.50549395
  Solvation  Ediel_sol  =         0.00000000
  ---------------------------------------------------
  free energy    TOTEN  =      -178.43051901 eV

  energy without entropy =     -178.23628701  energy(sigma->0) =     -178.38196101


--------------------------------------------------------------------------------------------------------




--------------------------------------- Iteration      1(  11)  ---------------------------------------


    POTLOK:  cpu time   13.9225: real time   13.9257
    SETDIJ:  cpu time    0.1262: real time    0.1262
    EDDIAG:  cpu time   71.2742: real time   71.2775
  RMM-DIIS:  cpu time  192.1972: real time  192.1998
    ORTHCH:  cpu time   13.5041: real time   13.5041
       DOS:  cpu time    0.0015: real time    0.0015
    CHARGE:  cpu time   25.4596: real time   25.4596
    MIXING:  cpu time    0.6091: real time    0.6091
    --------------------------------------------
      LOOP:  cpu time  317.0943: real time  317.1034

 eigenvalue-minimisations  :   726
 total energy-change (2. order) : 0.1621623E+01  (-0.1803284E+00)
 number of electron     559.9999834 magnetization 
 augmentation part      241.5358513 magnetization 

 Broyden mixing:
  rms(total) = 0.21959E+01    rms(broyden)= 0.21957E+01
  rms(prec ) = 0.26633E+01
  weight for this iteration     100.00

 eigenvalues of (default mixing * dielectric matrix)
  average eigenvalue GAMMA=   0.2533
  0.9202  0.1774  0.1774  0.1160  0.0643  0.0643

 Free energy of the ion-electron system (eV)
  ---------------------------------------------------
  alpha Z        PSCENC =        75.25431677
  Ewald energy   TEWEN  =    136782.87328028
  -Hartree energ DENC   =   -180765.02463809
  -exchange      EXHF   =         0.00000000
  -V(xc)+E(xc)   XCENC  =     -1697.44643827
  PAW double counting   =     45869.52128234   -42355.83751564
  entropy T*S    EENTRO =         0.04003264
  eigenvalues    EBANDS =     -3172.69470987
  atomic energy  EATOM  =     45086.50549395
  Solvation  Ediel_sol  =         0.00000000
  ---------------------------------------------------
  free energy    TOTEN  =      -176.80889589 eV

  energy without entropy =     -176.84892853  energy(sigma->0) =     -176.81890405


--------------------------------------------------------------------------------------------------------




--------------------------------------- Iteration      1(  12)  ---------------------------------------


    POTLOK:  cpu time   13.5632: real time   13.5663
    SETDIJ:  cpu time    0.1248: real time    0.1248
    EDDIAG:  cpu time   71.2997: real time   71.3046
  RMM-DIIS:  cpu time  195.5021: real time  195.5096
    ORTHCH:  cpu time   13.6605: real time   13.6625
       DOS:  cpu time    0.0015: real time    0.0015
    CHARGE:  cpu time   25.5695: real time   25.5694
    MIXING:  cpu time    0.6385: real time    0.6385
    --------------------------------------------
      LOOP:  cpu time  320.3597: real time  320.3771

 eigenvalue-minimisations  :   737
 total energy-change (2. order) : 0.1398176E+01  (-0.6953748E-01)
 number of electron     559.9999845 magnetization 
 augmentation part      241.6456888 magnetization 

 Broyden mixing:
  rms(total) = 0.11305E+01    rms(broyden)= 0.11302E+01
  rms(prec ) = 0.13006E+01
  weight for this iteration     100.00

 eigenvalues of (default mixing * dielectric matrix)
  average eigenvalue GAMMA=   0.2526
  0.9680  0.2224  0.2224  0.1195  0.1195  0.0642  0.0523

 Free energy of the ion-electron system (eV)
  ---------------------------------------------------
  alpha Z        PSCENC =        75.25431677
  Ewald energy   TEWEN  =    136782.87328028
  -Hartree energ DENC   =   -180774.66560371
  -exchange      EXHF   =         0.00000000
  -V(xc)+E(xc)   XCENC  =     -1697.34072207
  PAW double counting   =     45883.51025542   -42369.08628786
  entropy T*S    EENTRO =        -0.12457933
  eigenvalues    EBANDS =     -3162.33687314
  atomic energy  EATOM  =     45086.50549395
  Solvation  Ediel_sol  =         0.00000000
  ---------------------------------------------------
  free energy    TOTEN  =      -175.41071970 eV

  energy without entropy =     -175.28614036  energy(sigma->0) =     -175.37957486


--------------------------------------------------------------------------------------------------------




--------------------------------------- Iteration      1(  13)  ---------------------------------------


    POTLOK:  cpu time   13.6223: real time   13.6241
    SETDIJ:  cpu time    0.1274: real time    0.1274
    EDDIAG:  cpu time   70.7110: real time   70.7118
  RMM-DIIS:  cpu time  191.1465: real time  191.1512
    ORTHCH:  cpu time   13.4752: real time   13.4752
       DOS:  cpu time    0.0015: real time    0.0015
    CHARGE:  cpu time   25.7182: real time   25.7182
    MIXING:  cpu time    0.6840: real time    0.6840
    --------------------------------------------
      LOOP:  cpu time  315.4861: real time  315.4935

 eigenvalue-minimisations  :   723
 total energy-change (2. order) : 0.1344830E+00  (-0.9095672E-01)
 number of electron     559.9999817 magnetization 
 augmentation part      241.6595076 magnetization 

 Broyden mixing:
  rms(total) = 0.13973E+01    rms(broyden)= 0.13970E+01
  rms(prec ) = 0.17085E+01
  weight for this iteration     100.00

 eigenvalues of (default mixing * dielectric matrix)
  average eigenvalue GAMMA=   0.2469
  1.0054  0.2479  0.2479  0.1735  0.0998  0.0791  0.0675  0.0540

 Free energy of the ion-electron system (eV)
  ---------------------------------------------------
  alpha Z        PSCENC =        75.25431677
  Ewald energy   TEWEN  =    136782.87328028
  -Hartree energ DENC   =   -180796.59341330
  -exchange      EXHF   =         0.00000000
  -V(xc)+E(xc)   XCENC  =     -1697.03898264
  PAW double counting   =     45914.30911369   -42398.17301017
  entropy T*S    EENTRO =        -0.06536396
  eigenvalues    EBANDS =     -3142.34767132
  atomic energy  EATOM  =     45086.50549395
  Solvation  Ediel_sol  =         0.00000000
  ---------------------------------------------------
  free energy    TOTEN  =      -175.27623671 eV

  energy without entropy =     -175.21087275  energy(sigma->0) =     -175.25989572


--------------------------------------------------------------------------------------------------------




--------------------------------------- Iteration      1(  14)  ---------------------------------------


    POTLOK:  cpu time   13.6960: real time   13.6980
    SETDIJ:  cpu time    0.1222: real time    0.1222
    EDDIAG:  cpu time   71.1987: real time   71.2072
  RMM-DIIS:  cpu time  191.5349: real time  191.5369
    ORTHCH:  cpu time   13.4633: real time   13.4632
       DOS:  cpu time    0.0015: real time    0.0015
    CHARGE:  cpu time   25.9050: real time   25.9051
    MIXING:  cpu time    0.7336: real time    0.7337
    --------------------------------------------
      LOOP:  cpu time  316.6552: real time  316.6680

 eigenvalue-minimisations  :   726
 total energy-change (2. order) :-0.3232550E-01  (-0.6248722E-01)
 number of electron     559.9999817 magnetization 
 augmentation part      241.5887547 magnetization 

 Broyden mixing:
  rms(total) = 0.15218E+01    rms(broyden)= 0.15215E+01
  rms(prec ) = 0.18328E+01
  weight for this iteration     100.00

 eigenvalues of (default mixing * dielectric matrix)
  average eigenvalue GAMMA=   0.2879
  1.1698  0.6121  0.2153  0.2153  0.1040  0.1040  0.0699  0.0545  0.0460

 Free energy of the ion-electron system (eV)
  ---------------------------------------------------
  alpha Z        PSCENC =        75.25431677
  Ewald energy   TEWEN  =    136782.87328028
  -Hartree energ DENC   =   -180815.78303769
  -exchange      EXHF   =         0.00000000
  -V(xc)+E(xc)   XCENC  =     -1696.76321477
  PAW double counting   =     45939.90093424   -42422.25356054
  entropy T*S    EENTRO =        -0.04608434
  eigenvalues    EBANDS =     -3124.99669012
  atomic energy  EATOM  =     45086.50549395
  Solvation  Ediel_sol  =         0.00000000
  ---------------------------------------------------
  free energy    TOTEN  =      -175.30856221 eV

  energy without entropy =     -175.26247788  energy(sigma->0) =     -175.29704113


--------------------------------------------------------------------------------------------------------




--------------------------------------- Iteration      1(  15)  ---------------------------------------


    POTLOK:  cpu time   13.6413: real time   13.6425
    SETDIJ:  cpu time    0.1265: real time    0.1265
    EDDIAG:  cpu time   70.6090: real time   70.6100
  RMM-DIIS:  cpu time  188.7277: real time  188.7317
    ORTHCH:  cpu time   13.5571: real time   13.5572
       DOS:  cpu time    0.0014: real time    0.0014
    CHARGE:  cpu time   25.8213: real time   25.8215
    MIXING:  cpu time    0.7923: real time    0.7924
    --------------------------------------------
      LOOP:  cpu time  313.2767: real time  313.2832

 eigenvalue-minimisations  :   716
 total energy-change (2. order) :-0.4684627E+00  (-0.1050597E+00)
 number of electron     559.9999809 magnetization 
 augmentation part      241.2533390 magnetization 

 Broyden mixing:
  rms(total) = 0.18682E+01    rms(broyden)= 0.18680E+01
  rms(prec ) = 0.21666E+01
  weight for this iteration     100.00

 eigenvalues of (default mixing * dielectric matrix)
  average eigenvalue GAMMA=   0.3131
  1.4436  0.8100  0.1916  0.1916  0.1390  0.0968  0.0968  0.0586  0.0586  0.0441

 Free energy of the ion-electron system (eV)
  ---------------------------------------------------
  alpha Z        PSCENC =        75.25431677
  Ewald energy   TEWEN  =    136782.87328028
  -Hartree energ DENC   =   -180867.91035630
  -exchange      EXHF   =         0.00000000
  -V(xc)+E(xc)   XCENC  =     -1696.01703030
  PAW double counting   =     46005.15569036   -42483.62891516
  entropy T*S    EENTRO =        -0.05966436
  eigenvalues    EBANDS =     -3077.94984018
  atomic energy  EATOM  =     45086.50549395
  Solvation  Ediel_sol  =         0.00000000
  ---------------------------------------------------
  free energy    TOTEN  =      -175.77702494 eV

  energy without entropy =     -175.71736058  energy(sigma->0) =     -175.76210885


--------------------------------------------------------------------------------------------------------




--------------------------------------- Iteration      1(  16)  ---------------------------------------


    POTLOK:  cpu time   13.6628: real time   13.6641
    SETDIJ:  cpu time    0.1255: real time    0.1255
    EDDIAG:  cpu time   70.4987: real time   70.5007
  RMM-DIIS:  cpu time  189.9721: real time  189.9799
    ORTHCH:  cpu time   13.6924: real time   13.6925
       DOS:  cpu time    0.0015: real time    0.0014
    CHARGE:  cpu time   25.9526: real time   25.9527
    MIXING:  cpu time    0.8661: real time    0.8662
    --------------------------------------------
      LOOP:  cpu time  314.7717: real time  314.7829

 eigenvalue-minimisations  :   720
 total energy-change (2. order) : 0.5671332E+00  (-0.9122865E-01)
 number of electron     559.9999837 magnetization 
 augmentation part      240.9632681 magnetization 

 Broyden mixing:
  rms(total) = 0.14191E+01    rms(broyden)= 0.14188E+01
  rms(prec ) = 0.16454E+01
  weight for this iteration     100.00

 eigenvalues of (default mixing * dielectric matrix)
  average eigenvalue GAMMA=   0.3166
  1.5974  0.8669  0.2160  0.2160  0.1385  0.0991  0.0991  0.0932  0.0562  0.0562
  0.0436

 Free energy of the ion-electron system (eV)
  ---------------------------------------------------
  alpha Z        PSCENC =        75.25431677
  Ewald energy   TEWEN  =    136782.87328028
  -Hartree energ DENC   =   -180913.84392395
  -exchange      EXHF   =         0.00000000
  -V(xc)+E(xc)   XCENC  =     -1695.38856695
  PAW double counting   =     46060.36348489   -42535.59488129
  entropy T*S    EENTRO =        -0.00319929
  eigenvalues    EBANDS =     -3035.37589616
  atomic energy  EATOM  =     45086.50549395
  Solvation  Ediel_sol  =         0.00000000
  ---------------------------------------------------
  free energy    TOTEN  =      -175.20989175 eV

  energy without entropy =     -175.20669246  energy(sigma->0) =     -175.20909192


--------------------------------------------------------------------------------------------------------




--------------------------------------- Iteration      1(  17)  ---------------------------------------


    POTLOK:  cpu time   13.5303: real time   13.5313
    SETDIJ:  cpu time    0.1267: real time    0.1267
    EDDIAG:  cpu time   70.4398: real time   70.4404
  RMM-DIIS:  cpu time  190.5036: real time  190.5087
    ORTHCH:  cpu time   13.6648: real time   13.6648
       DOS:  cpu time    0.0014: real time    0.0014
    CHARGE:  cpu time   26.0741: real time   26.0740
    MIXING:  cpu time    0.8831: real time    0.8831
    --------------------------------------------
      LOOP:  cpu time  315.2238: real time  315.2305

 eigenvalue-minimisations  :   724
 total energy-change (2. order) : 0.5256319E+00  (-0.5699385E-01)
 number of electron     559.9999836 magnetization 
 augmentation part      240.8975814 magnetization 

 Broyden mixing:
  rms(total) = 0.11469E+01    rms(broyden)= 0.11467E+01
  rms(prec ) = 0.13012E+01
  weight for this iteration     100.00

 eigenvalues of (default mixing * dielectric matrix)
  average eigenvalue GAMMA=   0.3239
  1.7495  0.9047  0.2680  0.2680  0.1392  0.1392  0.0965  0.0965  0.0721  0.0546
  0.0546  0.0438

 Free energy of the ion-electron system (eV)
  ---------------------------------------------------
  alpha Z        PSCENC =        75.25431677
  Ewald energy   TEWEN  =    136782.87328028
  -Hartree energ DENC   =   -180935.56246811
  -exchange      EXHF   =         0.00000000
  -V(xc)+E(xc)   XCENC  =     -1695.16546836
  PAW double counting   =     46081.33520616   -42555.27320276
  entropy T*S    EENTRO =         0.00699103
  eigenvalues    EBANDS =     -3014.65840884
  atomic energy  EATOM  =     45086.50549395
  Solvation  Ediel_sol  =         0.00000000
  ---------------------------------------------------
  free energy    TOTEN  =      -174.68425987 eV

  energy without entropy =     -174.69125090  energy(sigma->0) =     -174.68600762


--------------------------------------------------------------------------------------------------------




--------------------------------------- Iteration      1(  18)  ---------------------------------------


    POTLOK:  cpu time   13.6788: real time   13.6798
    SETDIJ:  cpu time    0.1250: real time    0.1249
    EDDIAG:  cpu time   70.4201: real time   70.4231
  RMM-DIIS:  cpu time  188.5220: real time  188.5236
    ORTHCH:  cpu time   13.6499: real time   13.6499
       DOS:  cpu time    0.0015: real time    0.0015
    CHARGE:  cpu time   26.2313: real time   26.2315
    MIXING:  cpu time    0.9293: real time    0.9293
    --------------------------------------------
      LOOP:  cpu time  313.5578: real time  313.5636

 eigenvalue-minimisations  :   715
 total energy-change (2. order) : 0.2831501E+00  (-0.4781708E-01)
 number of electron     559.9999832 magnetization 
 augmentation part      241.0484355 magnetization 

 Broyden mixing:
  rms(total) = 0.86339E+00    rms(broyden)= 0.86319E+00
  rms(prec ) = 0.10029E+01
  weight for this iteration     100.00

 eigenvalues of (default mixing * dielectric matrix)
  average eigenvalue GAMMA=   0.3490
  1.9606  1.0713  0.3313  0.3313  0.1583  0.1583  0.0987  0.0987  0.1058  0.0713
  0.0539  0.0539  0.0436

 Free energy of the ion-electron system (eV)
  ---------------------------------------------------
  alpha Z        PSCENC =        75.25431677
  Ewald energy   TEWEN  =    136782.87328028
  -Hartree energ DENC   =   -180945.86641113
  -exchange      EXHF   =         0.00000000
  -V(xc)+E(xc)   XCENC  =     -1695.05781540
  PAW double counting   =     46090.12038938   -42563.29904538
  entropy T*S    EENTRO =        -0.00604479
  eigenvalues    EBANDS =     -3004.92527345
  atomic energy  EATOM  =     45086.50549395
  Solvation  Ediel_sol  =         0.00000000
  ---------------------------------------------------
  free energy    TOTEN  =      -174.40110977 eV

  energy without entropy =     -174.39506498  energy(sigma->0) =     -174.39959857


--------------------------------------------------------------------------------------------------------




--------------------------------------- Iteration      1(  19)  ---------------------------------------


    POTLOK:  cpu time   13.6736: real time   13.6743
    SETDIJ:  cpu time    0.1290: real time    0.1289
    EDDIAG:  cpu time   70.5674: real time   70.5695
  RMM-DIIS:  cpu time  188.0254: real time  188.0281
    ORTHCH:  cpu time   13.6437: real time   13.6438
       DOS:  cpu time    0.0015: real time    0.0015
    CHARGE:  cpu time   26.1326: real time   26.1327
    MIXING:  cpu time    1.0068: real time    1.0069
    --------------------------------------------
      LOOP:  cpu time  313.1800: real time  313.1858

 eigenvalue-minimisations  :   715
 total energy-change (2. order) :-0.8608857E-01  (-0.5184807E-01)
 number of electron     559.9999846 magnetization 
 augmentation part      241.0928326 magnetization 

 Broyden mixing:
  rms(total) = 0.10158E+01    rms(broyden)= 0.10156E+01
  rms(prec ) = 0.11805E+01
  weight for this iteration     100.00

 eigenvalues of (default mixing * dielectric matrix)
  average eigenvalue GAMMA=   0.3546
  2.0222  1.2610  0.3417  0.3417  0.1732  0.1629  0.1629  0.0963  0.0963  0.0770
  0.0770  0.0539  0.0539  0.0435

 Free energy of the ion-electron system (eV)
  ---------------------------------------------------
  alpha Z        PSCENC =        75.25431677
  Ewald energy   TEWEN  =    136782.87328028
  -Hartree energ DENC   =   -180974.48069467
  -exchange      EXHF   =         0.00000000
  -V(xc)+E(xc)   XCENC  =     -1694.82484179
  PAW double counting   =     46101.80371561   -42573.52259484
  entropy T*S    EENTRO =        -0.05762793
  eigenvalues    EBANDS =     -2978.03824572
  atomic energy  EATOM  =     45086.50549395
  Solvation  Ediel_sol  =         0.00000000
  ---------------------------------------------------
  free energy    TOTEN  =      -174.48719834 eV

  energy without entropy =     -174.42957041  energy(sigma->0) =     -174.47279135


--------------------------------------------------------------------------------------------------------




--------------------------------------- Iteration      1(  20)  ---------------------------------------


    POTLOK:  cpu time   13.5787: real time   13.5793
    SETDIJ:  cpu time    0.1233: real time    0.1233
    EDDIAG:  cpu time   70.4688: real time   70.4704
  RMM-DIIS:  cpu time  189.2407: real time  189.2426
    ORTHCH:  cpu time   13.7669: real time   13.7689
       DOS:  cpu time    0.0015: real time    0.0015
    CHARGE:  cpu time   26.2299: real time   26.2301
    MIXING:  cpu time    1.0877: real time    1.0877
    --------------------------------------------
      LOOP:  cpu time  314.4975: real time  314.5038

 eigenvalue-minimisations  :   719
 total energy-change (2. order) : 0.1514476E+00  (-0.3483502E-01)
 number of electron     559.9999842 magnetization 
 augmentation part      241.0905187 magnetization 

 Broyden mixing:
  rms(total) = 0.77590E+00    rms(broyden)= 0.77565E+00
  rms(prec ) = 0.89410E+00
  weight for this iteration     100.00

 eigenvalues of (default mixing * dielectric matrix)
  average eigenvalue GAMMA=   0.3537
  2.1402  1.2739  0.4860  0.2374  0.2374  0.1628  0.1628  0.1165  0.0969  0.0969
  0.0716  0.0716  0.0539  0.0539  0.0435

 Free energy of the ion-electron system (eV)
  ---------------------------------------------------
  alpha Z        PSCENC =        75.25431677
  Ewald energy   TEWEN  =    136782.87328028
  -Hartree energ DENC   =   -180994.90049473
  -exchange      EXHF   =         0.00000000
  -V(xc)+E(xc)   XCENC  =     -1694.71904479
  PAW double counting   =     46099.59585696   -42570.68272577
  entropy T*S    EENTRO =        -0.10616664
  eigenvalues    EBANDS =     -2958.15626672
  atomic energy  EATOM  =     45086.50549395
  Solvation  Ediel_sol  =         0.00000000
  ---------------------------------------------------
  free energy    TOTEN  =      -174.33575069 eV

  energy without entropy =     -174.22958406  energy(sigma->0) =     -174.30920904


--------------------------------------------------------------------------------------------------------




--------------------------------------- Iteration      1(  21)  ---------------------------------------


    POTLOK:  cpu time   13.6197: real time   13.6203
    SETDIJ:  cpu time    0.1227: real time    0.1227
    EDDIAG:  cpu time   70.7640: real time   70.7654
  RMM-DIIS:  cpu time  187.1415: real time  187.1451
    ORTHCH:  cpu time   13.9107: real time   13.9108
       DOS:  cpu time    0.0015: real time    0.0015
    CHARGE:  cpu time   26.2760: real time   26.2761
    MIXING:  cpu time    1.1134: real time    1.1134
    --------------------------------------------
      LOOP:  cpu time  312.9495: real time  312.9553

 eigenvalue-minimisations  :   711
 total energy-change (2. order) : 0.2604987E+00  (-0.1765397E-01)
 number of electron     559.9999835 magnetization 
 augmentation part      241.2300289 magnetization 

 Broyden mixing:
  rms(total) = 0.50130E+00    rms(broyden)= 0.50115E+00
  rms(prec ) = 0.56705E+00
  weight for this iteration     100.00

 eigenvalues of (default mixing * dielectric matrix)
  average eigenvalue GAMMA=   0.3601
  2.2233  1.3081  0.6114  0.2798  0.2798  0.1690  0.1495  0.1495  0.0965  0.0965
  0.1037  0.0715  0.0715  0.0539  0.0539  0.0435

 Free energy of the ion-electron system (eV)
  ---------------------------------------------------
  alpha Z        PSCENC =        75.25431677
  Ewald energy   TEWEN  =    136782.87328028
  -Hartree energ DENC   =   -181002.64729805
  -exchange      EXHF   =         0.00000000
  -V(xc)+E(xc)   XCENC  =     -1694.60661924
  PAW double counting   =     46099.57412900   -42570.24309173
  entropy T*S    EENTRO =        -0.11214538
  eigenvalues    EBANDS =     -2950.67331760
  atomic energy  EATOM  =     45086.50549395
  Solvation  Ediel_sol  =         0.00000000
  ---------------------------------------------------
  free energy    TOTEN  =      -174.07525200 eV

  energy without entropy =     -173.96310662  energy(sigma->0) =     -174.04721565


--------------------------------------------------------------------------------------------------------




--------------------------------------- Iteration      1(  22)  ---------------------------------------


    POTLOK:  cpu time   13.6830: real time   13.6836
    SETDIJ:  cpu time    0.1281: real time    0.1281
    EDDIAG:  cpu time   70.4147: real time   70.4153
  RMM-DIIS:  cpu time  186.9687: real time  186.9746
    ORTHCH:  cpu time   13.9606: real time   13.9606
       DOS:  cpu time    0.0015: real time    0.0015
    CHARGE:  cpu time   26.3320: real time   26.3320
    MIXING:  cpu time    1.2136: real time    1.2136
    --------------------------------------------
      LOOP:  cpu time  312.7021: real time  312.7093

 eigenvalue-minimisations  :   712
 total energy-change (2. order) : 0.7676212E-01  (-0.9881181E-02)
 number of electron     559.9999833 magnetization 
 augmentation part      241.2066010 magnetization 

 Broyden mixing:
  rms(total) = 0.47950E+00    rms(broyden)= 0.47942E+00
  rms(prec ) = 0.56017E+00
  weight for this iteration     100.00

 eigenvalues of (default mixing * dielectric matrix)
  average eigenvalue GAMMA=   0.3629
  2.2617  1.3677  0.7326  0.2997  0.2997  0.2012  0.1534  0.1534  0.1200  0.0966
  0.0966  0.0951  0.0697  0.0697  0.0539  0.0539  0.0435

 Free energy of the ion-electron system (eV)
  ---------------------------------------------------
  alpha Z        PSCENC =        75.25431677
  Ewald energy   TEWEN  =    136782.87328028
  -Hartree energ DENC   =   -181016.68757841
  -exchange      EXHF   =         0.00000000
  -V(xc)+E(xc)   XCENC  =     -1694.43394791
  PAW double counting   =     46099.47665648   -42569.61736375
  entropy T*S    EENTRO =        -0.11194342
  eigenvalues    EBANDS =     -2937.25740387
  atomic energy  EATOM  =     45086.50549395
  Solvation  Ediel_sol  =         0.00000000
  ---------------------------------------------------
  free energy    TOTEN  =      -173.99848988 eV

  energy without entropy =     -173.88654646  energy(sigma->0) =     -173.97050402


--------------------------------------------------------------------------------------------------------




--------------------------------------- Iteration      1(  23)  ---------------------------------------


    POTLOK:  cpu time   13.6991: real time   13.7013
    SETDIJ:  cpu time    0.1211: real time    0.1211
    EDDIAG:  cpu time   70.5069: real time   70.5084
  RMM-DIIS:  cpu time  189.0174: real time  189.0199
    ORTHCH:  cpu time   13.9095: real time   13.9095
       DOS:  cpu time    0.0015: real time    0.0015
    CHARGE:  cpu time   26.2932: real time   26.2931
    MIXING:  cpu time    1.3022: real time    1.3023
    --------------------------------------------
      LOOP:  cpu time  314.8510: real time  314.8572

 eigenvalue-minimisations  :   716
 total energy-change (2. order) : 0.5911713E-01  (-0.6745725E-02)
 number of electron     559.9999833 magnetization 
 augmentation part      241.1889074 magnetization 

 Broyden mixing:
  rms(total) = 0.40912E+00    rms(broyden)= 0.40906E+00
  rms(prec ) = 0.47367E+00
  weight for this iteration     100.00

 eigenvalues of (default mixing * dielectric matrix)
  average eigenvalue GAMMA=   0.3603
  2.2917  1.4062  0.7978  0.3142  0.3142  0.2299  0.1590  0.1590  0.1469  0.0970
[...]
 -0.006  -0.012   0.004   0.004   0.005  -0.006  -0.012   0.004
 -0.011  -0.020   0.006   0.007   0.009  -0.011  -0.020   0.006
 -0.015  -0.005   0.013   0.000   0.022  -0.014  -0.005   0.012
  0.000  -0.023  -0.006  -0.015  -0.000   0.000  -0.022  -0.006
 -0.022   0.000   0.009  -0.005  -0.016  -0.022   0.000   0.008
 -0.017  -0.006   0.015   0.000   0.027  -0.017  -0.006   0.015
  0.000  -0.027  -0.007  -0.018   0.000   0.000  -0.027  -0.007
 -0.027   0.000   0.010  -0.006  -0.019  -0.026   0.000   0.010
 total augmentation occupancy for first ion, spin component:           1
  1.536  -0.030   0.005   0.017   0.024   0.076  -0.008  -0.002   0.035  -0.010   0.092  -0.031   0.012   0.002   0.002  -0.019
 -0.030   1.402   0.029   0.071   0.000  -0.007   0.071   0.011  -0.014  -0.008   0.217  -0.065   0.019   0.001   0.002  -0.006
  0.005   0.029   1.543   0.001   0.002  -0.002   0.013   0.073  -0.012   0.017  -0.053   0.018  -0.003  -0.007  -0.005   0.016
  0.017   0.071   0.001   1.338   0.045   0.033  -0.013  -0.012   0.091  -0.023  -0.081   0.021  -0.001  -0.009  -0.004   0.001
  0.024   0.000   0.002   0.045   1.441  -0.010  -0.009   0.016  -0.022   0.067  -0.095   0.031  -0.002  -0.010  -0.010   0.026
  0.076  -0.007  -0.002   0.033  -0.010   0.217   0.019  -0.002  -0.045   0.004  -0.048   0.002   0.017  -0.010   0.034  -0.004
 -0.008   0.071   0.013  -0.013  -0.009   0.019   0.262  -0.023  -0.003   0.006  -0.109   0.007  -0.001   0.051  -0.010  -0.000
 -0.002   0.011   0.073  -0.012   0.016  -0.002  -0.023   0.215   0.014  -0.020   0.028  -0.001  -0.012   0.009  -0.018   0.003
  0.035  -0.014  -0.012   0.091  -0.022  -0.045  -0.003   0.014   0.260   0.007   0.043  -0.004  -0.009   0.036   0.004   0.000
 -0.010  -0.008   0.017  -0.023   0.067   0.004   0.006  -0.020   0.007   0.258   0.046  -0.002  -0.038   0.002   0.049   0.007
  0.092   0.217  -0.053  -0.081  -0.095  -0.048  -0.109   0.028   0.043   0.046   0.950  -0.141   0.084   0.014   0.064  -0.013
 -0.031  -0.065   0.018   0.021   0.031   0.002   0.007  -0.001  -0.004  -0.002  -0.141   0.023  -0.014  -0.003  -0.010   0.003
  0.012   0.019  -0.003  -0.001  -0.002   0.017  -0.001  -0.012  -0.009  -0.038   0.084  -0.014   0.029  -0.008  -0.004  -0.003
  0.002   0.001  -0.007  -0.009  -0.010  -0.010   0.051   0.009   0.036   0.002   0.014  -0.003  -0.008   0.036   0.004   0.000
  0.002   0.002  -0.005  -0.004  -0.010   0.034  -0.010  -0.018   0.004   0.049   0.064  -0.010  -0.004   0.004   0.035  -0.000
 -0.019  -0.006   0.016   0.001   0.026  -0.004  -0.000   0.003   0.000   0.007  -0.013   0.003  -0.003   0.000  -0.000   0.001
  0.001  -0.028  -0.007  -0.018   0.001   0.001  -0.008  -0.001  -0.006  -0.000  -0.003   0.001   0.000  -0.003  -0.000   0.000
 -0.028   0.001   0.012  -0.005  -0.019  -0.006   0.001   0.003  -0.001  -0.007  -0.008   0.001  -0.000  -0.000  -0.003   0.000


------------------------ aborting loop because EDIFF is reached ----------------------------------------


    CHARGE:  cpu time   25.6691: real time   25.6692
    FORLOC:  cpu time    6.8182: real time    6.8182
    FORNL :  cpu time   66.8125: real time   66.8129
    STRESS:  cpu time  202.4597: real time  202.4631
    FORCOR:  cpu time   22.2147: real time   22.2162
    FORHAR:  cpu time    9.8483: real time    9.8484
    MIXING:  cpu time    3.8870: real time    3.8870
    OFIELD:  cpu time    0.0000: real time    0.0000

  FORCE on cell =-STRESS in cart. coord.  units (eV):
  Direction    XX          YY          ZZ          XY          YZ          ZX
  --------------------------------------------------------------------------------------
  Alpha Z    75.25432    75.25432    75.25432
  Ewald   50183.77009 43157.83520 43441.16252    82.10463    16.93650   561.82338
  Hartree 64730.11279 58083.09514 58346.30983    73.75524    14.83419   503.93824
  E(xc)   -2902.81379 -2904.77718 -2904.67441     0.06083     0.02005     0.43029
  Local  ************************************  -155.12338   -31.60503 -1060.94569
  n-local  -893.06462  -881.40335  -882.36286    -0.31797    -0.12278    -2.17101
  augment  4103.12402  4103.98623  4104.21431    -0.04714    -0.00092    -0.14629
  Kinetic  7790.41838  7809.46523  7809.01868    -0.49047    -0.11819    -3.36039
  Fock        0.00000     0.00000     0.00000     0.00000     0.00000     0.00000
  -------------------------------------------------------------------------------------
  Total    -112.47137  -113.93473  -114.23322    -0.05826    -0.05617    -0.43148
  in kB      -6.67404    -6.76088    -6.77859    -0.00346    -0.00333    -0.02560
  external pressure =       -6.74 kB  Pullay stress =        0.00 kB


 VOLUME and BASIS-vectors are now :
 -----------------------------------------------------------------------------
  energy-cutoff  :      400.00
  volume of cell :    27000.00
      direct lattice vectors                 reciprocal lattice vectors
    30.000000000  0.000000000  0.000000000     0.033333333  0.000000000  0.000000000
     0.000000000 30.000000000  0.000000000     0.000000000  0.033333333  0.000000000
     0.000000000  0.000000000 30.000000000     0.000000000  0.000000000  0.033333333

  length of vectors
    30.000000000 30.000000000 30.000000000     0.033333333  0.033333333  0.033333333


 FORCES acting on ions
    electron-ion (+dipol)            ewald-force                    non-local-force                 convergence-correction
 -----------------------------------------------------------------------------------------------
   0.383E+03 0.977E+03 0.417E+03   -.380E+03 -.974E+03 -.417E+03   -.149E+01 -.182E+01 -.224E+00   -.763E-03 -.559E-03 0.258E-02
   -.970E+03 -.395E+03 0.416E+03   0.967E+03 0.392E+03 -.416E+03   0.182E+01 0.149E+01 -.223E+00   0.132E-02 0.524E-03 -.155E-02
   -.398E+03 0.973E+03 0.416E+03   0.396E+03 -.970E+03 -.416E+03   0.149E+01 -.182E+01 -.225E+00   0.134E-02 -.120E-02 0.148E-02
   0.922E+03 -.412E+03 0.428E+03   -.919E+03 0.410E+03 -.428E+03   -.189E+01 0.143E+01 -.162E+00   0.978E-04 0.142E-02 0.209E-02
   -.799E+01 0.589E+03 0.967E+03   0.799E+01 -.588E+03 -.963E+03   -.325E-02 -.308E+00 -.234E+01   0.515E-03 0.369E-03 -.237E-03
   -.569E+01 0.588E+03 -.968E+03   0.569E+01 -.587E+03 0.964E+03   -.465E-02 -.307E+00 0.234E+01   0.229E-03 0.242E-03 0.535E-03
   -.598E+01 0.114E+04 -.990E+00   0.598E+01 -.113E+04 0.986E+00   0.128E-02 -.311E+01 0.936E-03   -.672E-03 0.150E-02 0.268E-02
   0.101E+04 -.673E+01 -.515E+02   -.101E+04 0.671E+01 0.513E+02   -.265E+01 -.193E-01 -.102E+00   0.462E-03 -.711E-03 0.113E-02
   -.113E+04 -.107E+00 -.819E+00   0.112E+04 0.108E+00 0.827E+00   0.311E+01 0.223E-04 -.306E-02   -.265E-03 -.128E-02 -.345E-02
   -.564E+01 -.114E+04 -.942E+00   0.564E+01 0.113E+04 0.938E+00   0.128E-02 0.311E+01 0.132E-02   -.150E-02 -.905E-03 0.194E-02
   -.580E+03 0.579E+03 0.813E+03   0.578E+03 -.577E+03 -.810E+03   0.156E+01 -.156E+01 -.220E+01   0.185E-02 -.136E-02 0.223E-03
   -.579E+03 0.579E+03 -.814E+03   0.577E+03 -.576E+03 0.811E+03   0.156E+01 -.156E+01 0.220E+01   -.335E-02 -.268E-03 0.130E-02
   0.562E+03 -.586E+03 0.820E+03   -.560E+03 0.584E+03 -.817E+03   -.154E+01 0.156E+01 -.221E+01   -.326E-03 0.211E-02 -.108E-03
   0.568E+03 -.583E+03 -.820E+03   -.566E+03 0.580E+03 0.817E+03   -.156E+01 0.155E+01 0.219E+01   0.356E-02 -.811E-03 -.372E-03
   0.561E+03 0.586E+03 0.821E+03   -.559E+03 -.583E+03 -.817E+03   -.154E+01 -.156E+01 -.221E+01   -.286E-03 -.202E-02 0.371E-03
   0.568E+03 0.582E+03 -.821E+03   -.565E+03 -.580E+03 0.817E+03   -.155E+01 -.155E+01 0.219E+01   0.315E-02 0.953E-04 -.741E-03
   -.580E+03 -.579E+03 0.813E+03   0.578E+03 0.577E+03 -.810E+03   0.156E+01 0.156E+01 -.220E+01   0.153E-02 0.185E-03 0.536E-04
   -.579E+03 -.579E+03 -.814E+03   0.577E+03 0.577E+03 0.811E+03   0.156E+01 0.156E+01 0.220E+01   -.447E-02 -.796E-03 0.225E-02
   0.385E+03 0.976E+03 -.420E+03   -.383E+03 -.973E+03 0.419E+03   -.149E+01 -.182E+01 0.223E+00   0.276E-03 0.956E-03 0.190E-02
   -.970E+03 -.394E+03 -.417E+03   0.967E+03 0.392E+03 0.417E+03   0.181E+01 0.150E+01 0.224E+00   -.335E-02 0.110E-02 0.363E-02
   -.327E+03 0.322E+03 0.453E+03   0.327E+03 -.322E+03 -.454E+03   -.373E+00 0.367E+00 0.518E+00   0.218E-03 -.215E-02 -.398E-03
   0.919E+03 0.410E+03 0.429E+03   -.916E+03 -.408E+03 -.429E+03   -.189E+01 -.143E+01 -.152E+00   0.642E-06 -.199E-02 0.308E-02
   -.398E+03 -.973E+03 0.416E+03   0.396E+03 0.970E+03 -.416E+03   0.149E+01 0.182E+01 -.225E+00   -.682E-03 0.137E-02 0.226E-02
   -.398E+03 0.973E+03 -.418E+03   0.396E+03 -.970E+03 0.417E+03   0.150E+01 -.182E+01 0.220E+00   -.171E-02 0.785E-03 0.310E-02
   0.944E+03 -.404E+03 -.437E+03   -.941E+03 0.401E+03 0.436E+03   -.185E+01 0.154E+01 0.261E+00   0.313E-02 -.499E-03 0.129E-02
   -.970E+03 0.394E+03 0.416E+03   0.967E+03 -.392E+03 -.416E+03   0.182E+01 -.149E+01 -.223E+00   0.487E-04 -.276E-02 -.229E-02
   0.383E+03 -.977E+03 0.417E+03   -.381E+03 0.974E+03 -.417E+03   -.149E+01 0.182E+01 -.224E+00   -.140E-02 -.119E-03 0.149E-02
   0.303E+03 0.324E+03 0.455E+03   -.303E+03 -.325E+03 -.456E+03   0.380E+00 0.366E+00 0.521E+00   -.819E-04 -.499E-03 0.228E-02
   -.950E+01 0.641E+03 -.149E+01   0.950E+01 -.642E+03 0.148E+01   -.178E-02 0.729E+00 0.779E-03   -.197E-02 -.227E-02 0.346E-02
   -.588E+03 -.947E-01 0.965E+03   0.587E+03 0.973E-01 -.962E+03   0.315E+00 -.192E-03 -.235E+01   0.100E-02 -.234E-02 0.273E-03
   -.587E+03 -.768E-01 -.966E+03   0.587E+03 0.799E-01 0.962E+03   0.316E+00 -.501E-04 0.234E+01   -.440E-02 -.298E-02 0.391E-02
   0.563E+03 -.611E+00 0.976E+03   -.562E+03 0.609E+00 -.972E+03   -.322E+00 0.910E-03 -.234E+01   0.183E-02 0.329E-03 0.310E-03
   0.573E+03 -.335E+00 -.975E+03   -.573E+03 0.332E+00 0.971E+03   -.302E+00 0.190E-02 0.236E+01   0.344E-02 -.368E-03 0.232E-03
   0.737E+03 0.771E+03 -.457E+01   -.735E+03 -.769E+03 0.457E+01   -.114E+01 -.115E+01 -.271E-02   0.698E-03 -.122E-02 0.295E-02
   -.762E+03 -.761E+03 -.729E+00   0.760E+03 0.759E+03 0.727E+00   0.114E+01 0.114E+01 0.262E-02   -.127E-02 0.182E-02 -.131E-04
   -.762E+03 0.761E+03 -.744E+00   0.760E+03 -.759E+03 0.741E+00   0.114E+01 -.114E+01 0.250E-02   0.806E-04 -.325E-02 0.582E-03
   0.739E+03 -.772E+03 -.427E+01   -.737E+03 0.770E+03 0.427E+01   -.114E+01 0.115E+01 -.248E-02   0.181E-02 0.188E-03 0.266E-02
   -.936E+01 -.191E+00 0.107E+04   0.936E+01 0.191E+00 -.107E+04   0.389E-02 -.676E-04 -.160E+01   -.334E-03 -.563E-03 -.168E-02
   -.642E+01 -.138E+00 -.107E+04   0.643E+01 0.138E+00 0.107E+04   -.772E-02 0.188E-05 0.161E+01   -.112E-02 -.952E-04 0.606E-03
   0.943E+03 0.402E+03 -.438E+03   -.940E+03 -.400E+03 0.437E+03   -.185E+01 -.153E+01 0.244E+00   0.258E-02 -.116E-02 0.102E-02
   -.398E+03 -.973E+03 -.418E+03   0.395E+03 0.970E+03 0.417E+03   0.150E+01 0.182E+01 0.220E+00   -.372E-02 -.184E-02 0.166E-02
   -.326E+03 0.322E+03 -.455E+03   0.326E+03 -.322E+03 0.456E+03   -.365E+00 0.368E+00 -.522E+00   -.254E-02 -.246E-02 0.577E-02
   0.303E+03 -.325E+03 0.455E+03   -.303E+03 0.325E+03 -.456E+03   0.381E+00 -.365E+00 0.519E+00   -.186E-03 0.313E-03 0.184E-02
   0.307E+03 0.323E+03 -.459E+03   -.307E+03 -.324E+03 0.460E+03   0.382E+00 0.365E+00 -.511E+00   -.772E-04 -.733E-03 0.332E-02
   -.970E+03 0.394E+03 -.418E+03   0.967E+03 -.392E+03 0.417E+03   0.181E+01 -.150E+01 0.224E+00   -.332E-02 -.553E-02 0.486E-02
   0.385E+03 -.976E+03 -.420E+03   -.383E+03 0.973E+03 0.419E+03   -.150E+01 0.182E+01 0.223E+00   0.250E-03 -.288E-02 0.185E-02
   -.327E+03 -.322E+03 0.453E+03   0.327E+03 0.322E+03 -.454E+03   -.372E+00 -.367E+00 0.518E+00   -.117E-02 -.997E-04 0.116E-02
   0.606E+03 -.850E+00 -.649E+01   -.607E+03 0.858E+00 0.656E+01   0.807E+00 -.468E-02 -.449E-01   0.158E-02 -.607E-03 0.306E-02
   -.641E+03 -.107E+00 -.817E+00   0.641E+03 0.107E+00 0.820E+00   -.733E+00 0.170E-03 -.150E-02   -.271E-02 -.105E-02 -.729E-03
   -.771E+01 -.589E+03 0.967E+03   0.771E+01 0.588E+03 -.963E+03   -.387E-02 0.308E+00 -.234E+01   -.257E-02 -.677E-03 -.882E-03
   -.552E+01 -.588E+03 -.967E+03   0.552E+01 0.587E+03 0.964E+03   -.416E-02 0.308E+00 0.234E+01   -.226E-02 -.228E-02 -.228E-03
   -.114E+02 -.230E+00 -.176E+01   0.115E+02 0.230E+00 0.175E+01   -.187E-01 -.132E-03 0.714E-04   -.369E-02 0.819E-03 0.367E-02
   0.307E+03 -.324E+03 -.459E+03   -.308E+03 0.324E+03 0.460E+03   0.381E+00 -.365E+00 -.511E+00   0.149E-02 0.517E-03 0.311E-02
   -.326E+03 -.322E+03 -.455E+03   0.326E+03 0.322E+03 0.456E+03   -.365E+00 -.368E+00 -.522E+00   -.608E-02 0.631E-03 0.394E-02
   -.915E+01 -.642E+03 -.144E+01   0.915E+01 0.643E+03 0.143E+01   -.192E-02 -.729E+00 0.123E-02   -.252E-02 -.131E-03 0.434E-02
   0.893E+02 0.482E+01 0.281E+02   -.610E+02 -.431E+01 -.243E+02   -.251E+02 -.405E+00 -.307E+01   -.309E-04 -.949E-04 0.310E-03
   0.550E+03 0.121E+02 0.857E+02   -.613E+03 -.132E+02 -.939E+02   0.604E+02 0.102E+01 0.784E+01   0.123E-03 -.924E-04 0.397E-03
 -----------------------------------------------------------------------------------------------
   -.357E+02 -.576E+00 -.488E+01   0.227E-12 -.174E-11 -.291E-11   0.357E+02 0.605E+00 0.480E+01   -.262E-01 -.354E-01 0.783E-01
 
 
 POSITION                                       TOTAL-FORCE (eV/Angst)
 -----------------------------------------------------------------------------------
     13.37281      9.84801     12.50759         0.702864      1.108858      0.292987
     20.15199     16.62719     12.50759        -1.109362     -0.701923      0.292293
     16.62719      9.84801     12.50759        -0.702213      1.108636      0.292788
      9.84801     16.62719     12.50759         1.136175     -0.691625      0.262295
     15.00000     11.47521     10.20639         0.000856      0.415530      1.281545
     15.00000     11.47521     19.79360         0.001257      0.413534     -1.283625
     15.00000      8.28283     15.00000        -0.000469      1.516482     -0.000109
      8.28283     15.00000     15.00000         0.787798     -0.047186     -0.341312
     21.71717     15.00000     15.00000        -1.518535      0.000057      0.001290
     15.00000     21.71717     15.00000        -0.000411     -1.516338     -0.000223
     18.35858     11.64142     10.25025        -0.756368      0.756847      1.072867
     18.35858     11.64142     19.74975        -0.757106      0.756288     -1.072564
     11.64142     18.35858     10.25025         0.750048     -0.756887      1.076235
     11.64142     18.35858     19.74975         0.760995     -0.751480     -1.067798
     11.64142     11.64142     10.25025         0.750368      0.757437      1.075986
     11.64142     11.64142     19.74975         0.760067      0.752391     -1.068156
     18.35858     18.35858     10.25025        -0.756319     -0.756552      1.072616
     18.35858     18.35858     19.74975        -0.757171     -0.756112     -1.072487
     13.37281      9.84801     17.49241         0.703982      1.109145     -0.291833
     20.15199     16.62719     17.49241        -1.107506     -0.704226     -0.292903
     16.73751     13.26249     12.54279         0.114030     -0.113190     -0.158741
      9.84801     13.37281     12.50759         1.138335      0.691693      0.261147
     16.62719     20.15199     12.50759        -0.702340     -1.108326      0.292720
     16.62719      9.84801     17.49241        -0.702996      1.108613     -0.291439
      9.84801     16.62719     17.49241         1.119252     -0.713149     -0.286503
     20.15199     13.37281     12.50759        -1.109338      0.702062      0.292422
     13.37281     20.15199     12.50759         0.703014     -1.108620      0.292992
     13.26249     13.26249     12.54279        -0.114359     -0.112051     -0.155371
     15.00000     11.52498     15.00000        -0.000587     -0.228384      0.000291
     18.52479     15.00000     10.20639        -0.413175      0.000163      1.278887
     18.52479     15.00000     19.79360        -0.414570      0.000137     -1.279770
     11.47521     15.00000     10.20640         0.418514     -0.000225      1.279551
     11.47521     15.00000     19.79360         0.406285     -0.000919     -1.285872
     11.49535     11.49535     15.00000         0.833369      0.828769      0.000652
     18.50465     18.50465     15.00000        -0.829818     -0.829017      0.000126
     18.50465     11.49535     15.00000        -0.829825      0.829204      0.000134
     11.49535     18.50465     15.00000         0.832875     -0.828990      0.000321
     15.00000     15.00000     10.04368        -0.002850     -0.000029      1.180317
     15.00000     15.00000     19.95633         0.003771     -0.000018     -1.179216
      9.84801     13.37281     17.49241         1.122621      0.711905     -0.280423
     16.62719     20.15199     17.49241        -0.703123     -1.108312     -0.291320
     16.73751     13.26249     17.45721         0.113326     -0.113647      0.158764
     13.26249     16.73751     12.54279        -0.113881      0.112367     -0.155007
     13.26249     13.26249     17.45721        -0.117180     -0.110597      0.153677
     20.15199     13.37281     17.49241        -1.107628      0.704407     -0.292959
     13.37281     20.15199     17.49241         0.704045     -1.108845     -0.291740
     16.73751     16.73751     12.54279         0.114099      0.113333     -0.158724
     11.52498     15.00000     15.00000        -0.236991      0.003051      0.029076
     18.47502     15.00000     15.00000         0.230328      0.000186      0.001556
     15.00000     18.52480     10.20639         0.001272     -0.414975      1.281440
     15.00000     18.52480     19.79360         0.001086     -0.413201     -1.283666
     15.00000     15.00000     15.00000         0.021371     -0.000049     -0.000999
     13.26249     16.73751     17.45721        -0.118280      0.110744      0.153183
     16.73751     16.73751     17.45721         0.113162      0.113826      0.158931
     15.00000     18.47502     15.00000        -0.000572      0.228632      0.000334
      5.76067     14.84204     13.79188         3.184728      0.095941      0.716926
      4.64236     14.82292     13.64566        -2.546921     -0.055365     -0.371587
 -----------------------------------------------------------------------------------
    total drift:                               -0.001810     -0.006291     -0.005454


--------------------------------------------------------------------------------------------------------



  FREE ENERGIE OF THE ION-ELECTRON SYSTEM (eV)
  ---------------------------------------------------
  free  energy   TOTEN  =      -173.83327361 eV

  energy  without entropy=     -173.72836274  energy(sigma->0) =     -173.80704589
 


--------------------------------------------------------------------------------------------------------


    POTLOK:  cpu time   14.4851: real time   14.4852


--------------------------------------------------------------------------------------------------------


     LOOP+:  cpu time18172.5113: real time18173.4775
    4ORBIT:  cpu time    0.0000: real time    0.0000

 total amount of memory used by VASP MPI-rank0  5486941. kBytes
=======================================================================

   base      :      30000. kBytes
   nonlr-proj:      17126. kBytes
   fftplans  :     924480. kBytes
   grid      :    1872000. kBytes
   one-center:        886. kBytes
   wavefun   :    2642449. kBytes
 
  
  
 General timing and accounting informations for this job:
 ========================================================
  
                  Total CPU time used (sec):    18246.568
                            User time (sec):    17235.477
                          System time (sec):     1011.091
                         Elapsed time (sec):    18247.653
  
                   Maximum memory used (kb):     7178728.
                   Average memory used (kb):           0.
  
                          Minor page faults:    812398342
                          Major page faults:            0
                 Voluntary context switches:          540
