       N       E                     dE             d eps       ncg     rms          rms(c)
DAV:   1     0.438084038690E+04    0.43808E+04   -0.10051E+05   688   0.815E+02
DAV:   2     0.202601218499E+04   -0.23548E+04   -0.21151E+04  1208   0.106E+02
DAV:   3     0.243321125963E+03   -0.17827E+04   -0.16730E+04   992   0.917E+01
DAV:   4    -0.131675199845E+03   -0.37500E+03   -0.31598E+03   824   0.438E+01
DAV:   5    -0.178224288567E+03   -0.46549E+02   -0.37838E+02  1016   0.146E+01    0.139E+01
RMM:   6    -0.178329718091E+03   -0.10543E+00   -0.54805E+01   723   0.872E+00    0.228E+01
RMM:   7    -0.179756261534E+03   -0.14265E+01   -0.19535E+01   847   0.430E+00    0.210E+01
RMM:   8    -0.183339048352E+03   -0.35828E+01   -0.63158E+00   797   0.313E+00    0.290E+01
RMM:   9    -0.182344657168E+03    0.99439E+00   -0.43053E+00   752   0.282E+00    0.258E+01
RMM:  10    -0.180700332067E+03    0.16443E+01   -0.33577E+00   733   0.258E+00    0.217E+01
RMM:  11    -0.178234535275E+03    0.24658E+01   -0.15775E+00   733   0.191E+00    0.215E+01
RMM:  12    -0.176865560462E+03    0.13690E+01   -0.11041E+00   739   0.157E+00    0.169E+01
RMM:  13    -0.176365638743E+03    0.49992E+00   -0.80431E-01   723   0.132E+00    0.152E+01
RMM:  14    -0.175906699010E+03    0.45894E+00   -0.78651E-01   720   0.131E+00    0.174E+01
RMM:  15    -0.175658638244E+03    0.24806E+00   -0.96460E-01   715   0.143E+00    0.142E+01
RMM:  16    -0.175309593355E+03    0.34904E+00   -0.10938E+00   710   0.153E+00    0.129E+01
RMM:  17    -0.175143139090E+03    0.16645E+00   -0.79477E-01   713   0.131E+00    0.144E+01
RMM:  18    -0.174911422025E+03    0.23172E+00   -0.66823E-01   709   0.119E+00    0.126E+01
RMM:  19    -0.174768011112E+03    0.14341E+00   -0.53746E-01   709   0.107E+00    0.105E+01
RMM:  20    -0.174538290364E+03    0.22972E+00   -0.30180E-01   711   0.841E-01    0.960E+00
RMM:  21    -0.174437550356E+03    0.10074E+00   -0.24284E-01   706   0.730E-01    0.821E+00
RMM:  22    -0.174375650404E+03    0.61900E-01   -0.19933E-01   709   0.672E-01    0.899E+00
RMM:  23    -0.174259381144E+03    0.11627E+00   -0.19836E-01   704   0.670E-01    0.778E+00
RMM:  24    -0.174163373911E+03    0.96007E-01   -0.16107E-01   709   0.615E-01    0.565E+00
RMM:  25    -0.174062782986E+03    0.10059E+00   -0.13701E-01   698   0.558E-01    0.430E+00
RMM:  26    -0.174050762056E+03    0.12021E-01   -0.90701E-02   703   0.473E-01    0.472E+00
RMM:  27    -0.173978737492E+03    0.72025E-01   -0.61045E-02   699   0.404E-01    0.301E+00
RMM:  28    -0.173954847406E+03    0.23890E-01   -0.40560E-02   697   0.325E-01    0.243E+00
RMM:  29    -0.173934624891E+03    0.20223E-01   -0.26545E-02   699   0.273E-01    0.208E+00
RMM:  30    -0.173920858307E+03    0.13767E-01   -0.14238E-02   698   0.201E-01    0.144E+00
RMM:  31    -0.173915462957E+03    0.53953E-02   -0.96035E-03   698   0.159E-01    0.120E+00
RMM:  32    -0.173911144740E+03    0.43182E-02   -0.72725E-03   700   0.141E-01    0.118E+00
RMM:  33    -0.173908837381E+03    0.23074E-02   -0.49998E-03   696   0.117E-01    0.101E+00
RMM:  34    -0.173905358612E+03    0.34788E-02   -0.38317E-03   696   0.973E-02    0.744E-01
RMM:  35    -0.173903680416E+03    0.16782E-02   -0.23382E-03   695   0.777E-02    0.518E-01
RMM:  36    -0.173905165417E+03   -0.14850E-02   -0.18882E-03   688   0.680E-02    0.603E-01
RMM:  37    -0.173906378167E+03   -0.12127E-02   -0.16468E-03   689   0.653E-02    0.461E-01
RMM:  38    -0.173907667581E+03   -0.12894E-02   -0.11988E-03   687   0.566E-02    0.399E-01
RMM:  39    -0.173911079992E+03   -0.34124E-02   -0.11363E-03   689   0.519E-02    0.436E-01
RMM:  40    -0.173912128109E+03   -0.10481E-02   -0.59120E-04   628   0.403E-02    0.266E-01
RMM:  41    -0.173914029104E+03   -0.19010E-02   -0.41618E-04   506   0.317E-02    0.282E-01
RMM:  42    -0.173916717840E+03   -0.26887E-02   -0.47049E-04   526   0.327E-02    0.142E-01
RMM:  43    -0.173918135371E+03   -0.14175E-02   -0.22941E-04   425   0.234E-02    0.130E-01
RMM:  44    -0.173922042339E+03   -0.39070E-02   -0.57417E-04   562   0.294E-02    0.148E-01
RMM:  45    -0.173923517543E+03   -0.14752E-02   -0.26594E-04   442   0.213E-02    0.114E-01
RMM:  46    -0.173925205770E+03   -0.16882E-02   -0.23101E-04   427   0.193E-02    0.144E-01
RMM:  47    -0.173926945946E+03   -0.17402E-02   -0.24768E-04   443   0.190E-02    0.771E-02
RMM:  48    -0.173927459239E+03   -0.51329E-03   -0.90432E-05   422   0.122E-02    0.569E-02
RMM:  49    -0.173928652427E+03   -0.11932E-02   -0.76815E-05   407   0.105E-02    0.530E-02
RMM:  50    -0.173929117487E+03   -0.46506E-03   -0.44416E-05   406   0.819E-03    0.335E-02
RMM:  51    -0.173929881343E+03   -0.76386E-03   -0.42223E-05   409   0.774E-03    0.475E-02
RMM:  52    -0.173930400529E+03   -0.51919E-03   -0.30415E-05   404   0.663E-03    0.270E-02
RMM:  53    -0.173930753206E+03   -0.35268E-03   -0.14464E-05   285   0.487E-03    0.256E-02
RMM:  54    -0.173931355960E+03   -0.60275E-03   -0.16951E-05   307   0.504E-03    0.172E-02
RMM:  55    -0.173931528129E+03   -0.17217E-03   -0.26758E-06   139   0.369E-03    0.124E-02
RMM:  56    -0.173931950935E+03   -0.42281E-03   -0.13233E-05   261   0.462E-03    0.154E-02
RMM:  57    -0.173932141227E+03   -0.19029E-03   -0.41348E-06   145   0.372E-03    0.976E-03
RMM:  58    -0.173932345960E+03   -0.20473E-03   -0.98914E-06   198   0.405E-03    0.905E-03
RMM:  59    -0.173932530911E+03   -0.18495E-03   -0.79120E-06   170   0.385E-03    0.859E-03
RMM:  60    -0.173932639085E+03   -0.10817E-03   -0.52808E-06   145   0.367E-03    0.553E-03
RMM:  61    -0.173932728698E+03   -0.89614E-04   -0.74455E-06   157   0.369E-03
   1 F= -.17393273E+03 E0= -.17390485E+03  d E =-.111499E+00
