 vasp.5.4.4.18Apr17-6-g9f103f2a35 (build Sep 03 2018 23:53:05) complex          
  
 executed on             LinuxIFC date 2021.12.02  01:12:11
 running on    1 total cores
 distrk:  each k-point on    1 cores,    1 groups
 distr:  one band on NCORES_PER_BAND=   1 cores,    1 groups


--------------------------------------------------------------------------------------------------------


 INCAR:
 POTCAR:    PAW_PBE Pd 04Jan2005                  
 POTCAR:    PAW_PBE C 08Apr2002                   
 POTCAR:    PAW_PBE O 08Apr2002                   
 POTCAR:    PAW_PBE Pd 04Jan2005                  
   VRHFIN =Pd : s1 d9                                                           
   LEXCH  = PE                                                                  
   EATOM  =   809.7530 eV,   59.5152 Ry                                         
                                                                                
   TITEL  = PAW_PBE Pd 04Jan2005                                                
   LULTRA =        F    use ultrasoft PP ?                                      
   IUNSCR =        1    unscreen: 0-lin 1-nonlin 2-no                           
   RPACOR =    2.000    partial core radius                                     
   POMASS =  106.420; ZVAL   =   10.000    mass and valenz                      
   RCORE  =    2.600    outmost cutoff radius                                   
   RWIGS  =    2.710; RWIGS  =    1.434    wigner-seitz radius (au A)           
   ENMAX  =  250.925; ENMIN  =  188.194 eV                                      
   ICORE  =        3    local potential                                         
   LCOR   =        T    correct aug charges                                     
   LPAW   =        T    paw PP                                                  
   EAUG   =  416.230                                                            
   DEXC   =    0.000                                                            
   RMAX   =    2.653    core radius for proj-oper                               
   RAUG   =    1.300    factor for augmentation sphere                          
   RDEP   =    2.734    radius for radial grids                                 
   RDEPT  =    2.103    core radius for aug-charge                              
                                                                                
   Atomic configuration                                                         
   12 entries                                                                   
     n  l   j            E        occ.                                          
     1  0  0.50    -24164.6631   2.0000                                         
     2  0  0.50     -3530.9218   2.0000                                         
     2  1  1.50     -3165.6822   6.0000                                         
     3  0  0.50      -639.4577   2.0000                                         
     3  1  1.50      -519.4532   6.0000                                         
     3  2  2.50      -328.9757  10.0000                                         
     4  0  0.50       -88.7014   2.0000                                         
     4  1  1.50       -54.4540   6.0000                                         
     4  2  2.50        -6.6878   9.0000                                         
     5  0  0.50        -4.3543   1.0000                                         
     5  1  0.50        -1.3606   0.0000                                         
     4  3  2.50        -1.3606   0.0000                                         
   Description                                                                  
     l       E           TYP  RCUT    TYP  RCUT                                 
     2     -6.6878251     23  2.400                                             
     2     -8.0484077     23  2.400                                             
     0     -4.3542939     23  2.400                                             
     0      4.3406793     23  2.400                                             
     1     -4.0817478     23  2.600                                             
     1     15.8380318     23  2.600                                             
     3     -4.0817478     23  2.400                                             
  local pseudopotential read in
  partial core-charges read in
  partial kinetic energy density read in
  atomic valenz-charges read in
  non local Contribution for L=           2  read in
    real space projection operators read in
  non local Contribution for L=           2  read in
    real space projection operators read in
  non local Contribution for L=           0  read in
    real space projection operators read in
  non local Contribution for L=           0  read in
    real space projection operators read in
  non local Contribution for L=           1  read in
    real space projection operators read in
  non local Contribution for L=           1  read in
    real space projection operators read in
    PAW grid and wavefunctions read in
 
   number of l-projection  operators is LMAX  =           6
   number of lm-projection operators is LMMAX =          18
 
 POTCAR:    PAW_PBE C 08Apr2002                   
   VRHFIN =C: s2p2                                                              
   LEXCH  = PE                                                                  
   EATOM  =   147.1560 eV,   10.8157 Ry                                         
                                                                                
   TITEL  = PAW_PBE C 08Apr2002                                                 
   LULTRA =        F    use ultrasoft PP ?                                      
   IUNSCR =        1    unscreen: 0-lin 1-nonlin 2-no                           
   RPACOR =    1.200    partial core radius                                     
   POMASS =   12.011; ZVAL   =    4.000    mass and valenz                      
   RCORE  =    1.500    outmost cutoff radius                                   
   RWIGS  =    1.630; RWIGS  =    0.863    wigner-seitz radius (au A)           
   ENMAX  =  400.000; ENMIN  =  300.000 eV                                      
   ICORE  =        2    local potential                                         
   LCOR   =        T    correct aug charges                                     
   LPAW   =        T    paw PP                                                  
   EAUG   =  644.873                                                            
   DEXC   =    0.000                                                            
   RMAX   =    1.529    core radius for proj-oper                               
   RAUG   =    1.300    factor for augmentation sphere                          
   RDEP   =    1.501    radius for radial grids                                 
   RDEPT  =    1.300    core radius for aug-charge                              
                                                                                
   Atomic configuration                                                         
    4 entries                                                                   
     n  l   j            E        occ.                                          
     1  0  0.50      -273.3789   2.0000                                         
     2  0  0.50       -13.7508   2.0000                                         
     2  1  0.50        -5.2854   2.0000                                         
     3  2  1.50        -5.4423   0.0000                                         
   Description                                                                  
     l       E           TYP  RCUT    TYP  RCUT                                 
     0    -13.7508458     23  1.200                                             
     0     -8.2022199     23  1.200                                             
     1     -5.2854383     23  1.500                                             
     1     34.0145650     23  1.500                                             
     2     -5.4423304      7  1.500                                             
  local pseudopotential read in
  partial core-charges read in
  partial kinetic energy density read in
  atomic valenz-charges read in
  non local Contribution for L=           0  read in
    real space projection operators read in
  non local Contribution for L=           0  read in
    real space projection operators read in
  non local Contribution for L=           1  read in
    real space projection operators read in
  non local Contribution for L=           1  read in
    real space projection operators read in
    PAW grid and wavefunctions read in
 
   number of l-projection  operators is LMAX  =           4
   number of lm-projection operators is LMMAX =           8
 
 POTCAR:    PAW_PBE O 08Apr2002                   
   VRHFIN =O: s2p4                                                              
   LEXCH  = PE                                                                  
   EATOM  =   432.3788 eV,   31.7789 Ry                                         
                                                                                
   TITEL  = PAW_PBE O 08Apr2002                                                 
   LULTRA =        F    use ultrasoft PP ?                                      
   IUNSCR =        1    unscreen: 0-lin 1-nonlin 2-no                           
   RPACOR =    1.200    partial core radius                                     
   POMASS =   16.000; ZVAL   =    6.000    mass and valenz                      
   RCORE  =    1.520    outmost cutoff radius                                   
   RWIGS  =    1.550; RWIGS  =    0.820    wigner-seitz radius (au A)           
   ENMAX  =  400.000; ENMIN  =  300.000 eV                                      
   ICORE  =        2    local potential                                         
   LCOR   =        T    correct aug charges                                     
   LPAW   =        T    paw PP                                                  
   EAUG   =  605.392                                                            
   DEXC   =    0.000                                                            
   RMAX   =    1.553    core radius for proj-oper                               
   RAUG   =    1.300    factor for augmentation sphere                          
   RDEP   =    1.550    radius for radial grids                                 
   RDEPT  =    1.329    core radius for aug-charge                              
                                                                                
   Atomic configuration                                                         
    4 entries                                                                   
     n  l   j            E        occ.                                          
     1  0  0.50      -514.6923   2.0000                                         
     2  0  0.50       -23.9615   2.0000                                         
     2  1  0.50        -9.0305   4.0000                                         
     3  2  1.50        -9.5241   0.0000                                         
   Description                                                                  
     l       E           TYP  RCUT    TYP  RCUT                                 
     0    -23.9615318     23  1.200                                             
     0     -9.5240782     23  1.200                                             
     1     -9.0304911     23  1.520                                             
     1      8.1634956     23  1.520                                             
     2     -9.5240782      7  1.500                                             
  local pseudopotential read in
  partial core-charges read in
  partial kinetic energy density read in
  kinetic energy density of atom read in
  atomic valenz-charges read in
  non local Contribution for L=           0  read in
    real space projection operators read in
  non local Contribution for L=           0  read in
    real space projection operators read in
  non local Contribution for L=           1  read in
    real space projection operators read in
  non local Contribution for L=           1  read in
    real space projection operators read in
    PAW grid and wavefunctions read in
 
   number of l-projection  operators is LMAX  =           4
   number of lm-projection operators is LMMAX =           8
 
 Optimization of the real space projectors (new method)

 maximal supplied QI-value         = 14.36
 optimisation between [QCUT,QGAM] = [ 10.20, 20.39] = [ 29.12,116.47] Ry 
 Optimized for a Real-space Cutoff    1.51 Angstroem

   l    n(q)    QCUT    max X(q) W(low)/X(q) W(high)/X(q)  e(spline) 
   2      8    10.197    59.108    0.26E-03    0.14E-03    0.96E-07
   2      8    10.197    58.101    0.27E-03    0.14E-03    0.98E-07
   0      9    10.197   102.235    0.54E-04    0.60E-05    0.72E-07
   0      9    10.197    58.388    0.52E-04    0.60E-05    0.68E-07
   1      9    10.197    22.191    0.18E-03    0.25E-03    0.79E-07
   1      9    10.197    15.590    0.15E-03    0.21E-03    0.69E-07
 Optimization of the real space projectors (new method)

 maximal supplied QI-value         = 25.13
 optimisation between [QCUT,QGAM] = [ 10.05, 20.36] = [ 28.30,116.06] Ry 
 Optimized for a Real-space Cutoff    1.30 Angstroem

   l    n(q)    QCUT    max X(q) W(low)/X(q) W(high)/X(q)  e(spline) 
   0      8    10.053   115.676    0.49E-03    0.72E-03    0.18E-06
   0      8    10.053    87.132    0.49E-03    0.71E-03    0.18E-06
   1      7    10.053     4.429    0.32E-03    0.31E-03    0.18E-06
   1      7    10.053     2.733    0.23E-03    0.19E-03    0.20E-06
 Optimization of the real space projectors (new method)

 maximal supplied QI-value         = 24.76
 optimisation between [QCUT,QGAM] = [ 10.15, 20.30] = [ 28.85,115.39] Ry 
 Optimized for a Real-space Cutoff    1.38 Angstroem

   l    n(q)    QCUT    max X(q) W(low)/X(q) W(high)/X(q)  e(spline) 
   0      8    10.150    20.381    0.22E-03    0.32E-03    0.29E-06
   0      8    10.150    15.268    0.23E-03    0.35E-03    0.30E-06
   1      8    10.150     5.964    0.46E-03    0.53E-03    0.21E-06
   1      8    10.150     5.382    0.38E-03    0.45E-03    0.19E-06

 ----------------------------------------------------------------------------- 
|                                                                             |
|  ADVICE TO THIS USER RUNNING 'VASP/VAMP'   (HEAR YOUR MASTER'S VOICE ...):  |
|                                                                             |
|      You enforced a specific xc-type in the INCAR file,                     |
|      a different type was found on the POTCAR file                          |
|          I HOPE YOU KNOW, WHAT YOU ARE  DOING                               |
|                                                                             |
 ----------------------------------------------------------------------------- 

  PAW_PBE Pd 04Jan2005                  :
 energy of atom  1       EATOM= -809.7530
 kinetic energy error for atom=    0.0091 (will be added to EATOM!!)
  PAW_PBE C 08Apr2002                   :
 energy of atom  2       EATOM= -147.1560
 kinetic energy error for atom=    0.0288 (will be added to EATOM!!)
  PAW_PBE O 08Apr2002                   :
 energy of atom  3       EATOM= -432.3788
 kinetic energy error for atom=    0.1156 (will be added to EATOM!!)
 
 
 POSCAR: Pd55PES                                 
  positions in cartesian coordinates
  No initial velocities read in
 exchange correlation table for  LEXCH =        9
   RHO(1)=    0.500       N(1)  =     2000
   RHO(2)=  100.500       N(2)  =     4000
 


--------------------------------------------------------------------------------------------------------


 ion  position               nearest neighbor table
   1  0.446  0.328  0.417-   3 3.25   5 3.25   7 3.36  15 3.36  29 3.42  28 3.42
   2  0.672  0.554  0.417-  26 3.25  30 3.25  17 3.36   9 3.36  47 3.42  49 3.42
   3  0.554  0.328  0.417-   1 3.25   5 3.25   7 3.36  11 3.36  29 3.42  21 3.42
   4  0.328  0.554  0.417-  32 3.25  22 3.25  13 3.36   8 3.36  43 3.42  48 3.42
   5  0.500  0.383  0.340-  56 2.62   3 3.25   1 3.25  15 3.36  11 3.36  28 3.42  21 3.42
   6  0.500  0.383  0.660-  24 3.25  19 3.25  16 3.36  12 3.36  42 3.42  44 3.42
   7  0.500  0.276  0.500-  29 3.24   3 3.36   1 3.36  19 3.36  24 3.36
   8  0.276  0.500  0.500-  48 3.24  22 3.36  40 3.36   4 3.36  25 3.36
   9  0.724  0.500  0.500-  49 3.24  26 3.36  45 3.36   2 3.36  20 3.36
  10  0.500  0.724  0.500-  55 3.24  27 3.36  23 3.36  46 3.36  41 3.36
  11  0.612  0.388  0.342-  21 3.24   5 3.36   3 3.36  30 3.36  26 3.36
  12  0.612  0.388  0.658-  42 3.24  24 3.36  45 3.36   6 3.36  31 3.36
  13  0.388  0.612  0.342-  43 3.24  32 3.36  50 3.36   4 3.36  27 3.36
  14  0.388  0.612  0.658-  53 3.24  25 3.36  33 3.36  51 3.36  46 3.36
  15  0.388  0.388  0.342-  28 3.24   5 3.36   1 3.36  32 3.36  22 3.36
  16  0.388  0.388  0.658-  44 3.24  19 3.36  40 3.36   6 3.36  33 3.36
  17  0.612  0.612  0.342-  47 3.24  30 3.36  50 3.36   2 3.36  23 3.36
  18  0.612  0.612  0.658-  54 3.24  31 3.36  20 3.36  51 3.36  41 3.36
  19  0.446  0.328  0.583-   6 3.25  24 3.25  16 3.36   7 3.36  44 3.42  29 3.42
  20  0.672  0.554  0.583-  31 3.25  45 3.25  18 3.36   9 3.36  54 3.42  49 3.42
  21  0.558  0.442  0.418-  11 3.24   5 3.42   3 3.42  30 3.42  26 3.42
  22  0.328  0.446  0.417-   4 3.25  32 3.25   8 3.36  15 3.36  48 3.42  28 3.42
  23  0.554  0.672  0.417-  27 3.25  50 3.25  10 3.36  17 3.36  55 3.42  47 3.42
  24  0.554  0.328  0.583-   6 3.25  19 3.25  12 3.36   7 3.36  42 3.42  29 3.42
  25  0.328  0.554  0.583-  33 3.25  40 3.25  14 3.36   8 3.36  53 3.42  48 3.42
  26  0.672  0.446  0.417-   2 3.25  30 3.25   9 3.36  11 3.36  49 3.42  21 3.42
  27  0.446  0.672  0.417-  23 3.25  50 3.25  10 3.36  13 3.36  55 3.42  43 3.42
  28  0.442  0.442  0.418-  15 3.24   5 3.42   1 3.42  32 3.42  22 3.42
  29  0.500  0.384  0.500-   7 3.24   3 3.42   1 3.42  24 3.42  19 3.42
  30  0.617  0.500  0.340-   2 3.25  26 3.25  17 3.36  11 3.36  47 3.42  21 3.42
  31  0.617  0.500  0.660-  20 3.25  45 3.25  18 3.36  12 3.36  54 3.42  42 3.42
  32  0.383  0.500  0.340-   4 3.25  22 3.25  13 3.36  15 3.36  43 3.42  28 3.42
  33  0.383  0.500  0.660-  25 3.25  40 3.25  14 3.36  16 3.36  53 3.42  44 3.42
  34  0.383  0.383  0.500-
  35  0.617  0.617  0.500-
  36  0.617  0.383  0.500-
  37  0.383  0.617  0.500-
  38  0.500  0.500  0.335-  56 1.72  57 2.67
  39  0.500  0.500  0.665-
  40  0.328  0.446  0.583-  33 3.25  25 3.25  16 3.36   8 3.36  44 3.42  48 3.42
  41  0.554  0.672  0.583-  46 3.25  51 3.25  10 3.36  18 3.36  54 3.42  55 3.42
  42  0.558  0.442  0.582-  12 3.24   6 3.42  24 3.42  31 3.42  45 3.42
  43  0.442  0.558  0.418-  13 3.24   4 3.42  32 3.42  27 3.42  50 3.42
  44  0.442  0.442  0.582-  16 3.24   6 3.42  19 3.42  33 3.42  40 3.42
  45  0.672  0.446  0.583-  20 3.25  31 3.25   9 3.36  12 3.36  49 3.42  42 3.42
  46  0.446  0.672  0.583-  41 3.25  51 3.25  10 3.36  14 3.36  53 3.42  55 3.42
  47  0.558  0.558  0.418-  17 3.24   2 3.42  30 3.42  23 3.42  50 3.42
  48  0.384  0.500  0.500-   8 3.24   4 3.42  22 3.42  25 3.42  40 3.42
  49  0.616  0.500  0.500-   9 3.24   2 3.42  26 3.42  20 3.42  45 3.42
  50  0.500  0.617  0.340-  27 3.25  23 3.25  13 3.36  17 3.36  43 3.42  47 3.42
  51  0.500  0.617  0.660-  41 3.25  46 3.25  14 3.36  18 3.36  53 3.42  54 3.42
  52  0.500  0.500  0.500-
  53  0.442  0.558  0.582-  14 3.24  25 3.42  33 3.42  51 3.42  46 3.42
  54  0.558  0.558  0.582-  18 3.24  31 3.42  20 3.42  51 3.42  41 3.42
  55  0.500  0.616  0.500-  10 3.24  23 3.42  27 3.42  41 3.42  46 3.42
  56  0.479  0.458  0.302-  57 1.13  38 1.72   5 2.62
  57  0.475  0.450  0.265-  56 1.13  38 2.67
 
  LATTYP: Found a simple cubic cell.
 ALAT       =    30.0000000000
  
  Lattice vectors:
  
 A1 = (  30.0000000000,   0.0000000000,   0.0000000000)
 A2 = (   0.0000000000,  30.0000000000,   0.0000000000)
 A3 = (   0.0000000000,   0.0000000000,  30.0000000000)


Analysis of symmetry for initial positions (statically):
=====================================================================
 Subroutine PRICEL returns:
 Original cell was already a primitive cell.
 

 Routine SETGRP: Setting up the symmetry group for a 
 simple cubic supercell.


 Subroutine GETGRP returns: Found  1 space group operations
 (whereof  1 operations were pure point group operations)
 out of a pool of 48 trial point group operations.


The static configuration has the point symmetry C_1 .


Analysis of symmetry for dynamics (positions and initial velocities):
=====================================================================
 Subroutine PRICEL returns:
 Original cell was already a primitive cell.
 

 Routine SETGRP: Setting up the symmetry group for a 
 simple cubic supercell.


 Subroutine GETGRP returns: Found  1 space group operations
 (whereof  1 operations were pure point group operations)
 out of a pool of 48 trial point group operations.


The dynamic configuration has the point symmetry C_1 .


Analysis of constrained symmetry for selective dynamics:
=====================================================================
 Subroutine PRICEL returns:
 Original cell was already a primitive cell.
 

 Routine SETGRP: Setting up the symmetry group for a 
 simple cubic supercell.


 Subroutine GETGRP returns: Found  1 space group operations
 (whereof  1 operations were pure point group operations)
 out of a pool of 48 trial point group operations.


The constrained configuration has the point symmetry C_1 .


 Subroutine INISYM returns: Found  1 space group operations
 (whereof  1 operations are pure point group operations),
 and found     1 'primitive' translations

 
 
 KPOINTS: K-points                                

Automatic generation of k-mesh.
Space group operators:
 irot       det(A)        alpha          n_x          n_y          n_z        tau_x        tau_y        tau_z
    1     1.000000     0.000000     1.000000     0.000000     0.000000     0.000000     0.000000     0.000000
 
 Subroutine IBZKPT returns following result:
 ===========================================
 
 Found      1 irreducible k-points:
 
 Following reciprocal coordinates:
            Coordinates               Weight
  0.000000  0.000000  0.000000      1.000000
 
 Following cartesian coordinates:
            Coordinates               Weight
  0.000000  0.000000  0.000000      1.000000
 


--------------------------------------------------------------------------------------------------------




 Dimension of arrays:
   k-points           NKPTS =      1   k-points in BZ     NKDIM =      1   number of bands    NBANDS=    336
   number of dos      NEDOS =    301   number of ions     NIONS =     57
   non local maximal  LDIM  =      6   non local SUM 2l+1 LMDIM =     18
   total plane-waves  NPLWV = ******
   max r-space proj   IRMAX =   1847   max aug-charges    IRDMAX=   6262
   dimension x,y,z NGX =   150 NGY =  150 NGZ =  150
   dimension x,y,z NGXF=   300 NGYF=  300 NGZF=  300
   support grid    NGXF=   300 NGYF=  300 NGZF=  300
   ions per type =              55   1   1
   NGX,Y,Z   is equivalent  to a cutoff of   8.31,  8.31,  8.31 a.u.
   NGXF,Y,Z  is equivalent  to a cutoff of  16.62, 16.62, 16.62 a.u.

 SYSTEM =  6_Pd100_top_free_z(O)                   
 POSCAR =  Pd55PES                                 

 Startparameter for this run:
   NWRITE =      2    write-flag & timer
   PREC   = normal    normal or accurate (medium, high low for compatibility)
   ISTART =      0    job   : 0-new  1-cont  2-samecut
   ICHARG =      2    charge: 1-file 2-atom 10-const
   ISPIN  =      1    spin polarized calculation?
   LNONCOLLINEAR =      F non collinear calculations
   LSORBIT =      F    spin-orbit coupling
   INIWAV =      1    electr: 0-lowe 1-rand  2-diag
   LASPH  =      F    aspherical Exc in radial PAW
   METAGGA=      F    non-selfconsistent MetaGGA calc.

 Electronic Relaxation 1
   ENCUT  =  400.0 eV  29.40 Ry    5.42 a.u.  48.92 48.92 48.92*2*pi/ulx,y,z
   ENINI  =  400.0     initial cutoff
   ENAUG  =  644.9 eV  augmentation charge cutoff
   NELM   =    100;   NELMIN=  6; NELMDL= -5     # of ELM steps 
   EDIFF  = 0.1E-03   stopping-criterion for ELM
   LREAL  =      T    real-space projection
   NLSPLINE    = F    spline interpolate recip. space projectors
   LCOMPAT=      F    compatible to vasp.4.4
   GGA_COMPAT  = T    GGA compatible to vasp.4.4-vasp.4.6
   LMAXPAW     = -100 max onsite density
   LMAXMIX     =    2 max onsite mixed and CHGCAR
   VOSKOWN=      0    Vosko Wilk Nusair interpolation
   ROPT   =   -0.00050  -0.00050  -0.00050
 Ionic relaxation
   EDIFFG = -.5E-01   stopping-criterion for IOM
   NSW    =      0    number of steps for IOM
   NBLOCK =      1;   KBLOCK =      1    inner block; outer block 
   IBRION =     -1    ionic relax: 0-MD 1-quasi-New 2-CG
   NFREE  =      1    steps in history (QN), initial steepest desc. (CG)
   ISIF   =      2    stress and relaxation
   IWAVPR =     10    prediction:  0-non 1-charg 2-wave 3-comb
   ISYM   =      2    0-nonsym 1-usesym 2-fastsym
   LCORR  =      T    Harris-Foulkes like correction to forces

   POTIM  = 0.5000    time-step for ionic-motion
   TEIN   =    0.0    initial temperature
   TEBEG  =    0.0;   TEEND  =   0.0 temperature during run
   SMASS  =  -3.00    Nose mass-parameter (am)
   estimated Nose-frequenzy (Omega)   =  0.10E-29 period in steps =****** mass=  -0.206E-25a.u.
   SCALEE = 1.0000    scale energy and forces
   NPACO  =    256;   APACO  = 16.0  distance and # of slots for P.C.
   PSTRESS=    0.0 pullay stress

  Mass of Ions in am
   POMASS = 106.42 12.01 16.00
  Ionic Valenz
   ZVAL   =  10.00  4.00  6.00
  Atomic Wigner-Seitz radii
   RWIGS  =  -1.00 -1.00 -1.00
  virtual crystal weights 
   VCA    =   1.00  1.00  1.00
   NELECT =     560.0000    total number of electrons
   NUPDOWN=      -1.0000    fix difference up-down

 DOS related values:
   EMIN   =  10.00;   EMAX   =-10.00  energy-range for DOS
   EFERMI =   0.00
   ISMEAR =     2;   SIGMA  =   0.20  broadening in eV -4-tet -1-fermi 0-gaus

 Electronic relaxation 2 (details)
   IALGO  =     68    algorithm
   LDIAG  =      T    sub-space diagonalisation (order eigenvalues)
   LSUBROT=      F    optimize rotation matrix (better conditioning)
   TURBO    =      0    0=normal 1=particle mesh
   IRESTART =      0    0=no restart 2=restart with 2 vectors
   NREBOOT  =      0    no. of reboots
   NMIN     =      0    reboot dimension
   EREF     =   0.00    reference energy to select bands
   IMIX   =      4    mixing-type and parameters
     AMIX     =   0.40;   BMIX     =  1.00
     AMIX_MAG =   1.60;   BMIX_MAG =  1.00
     AMIN     =   0.10
     WC   =   100.;   INIMIX=   1;  MIXPRE=   1;  MAXMIX= -45

 Intra band minimization:
   WEIMIN = 0.0000     energy-eigenvalue tresh-hold
   EBREAK =  0.74E-07  absolut break condition
   DEPER  =   0.30     relativ break condition  

   TIME   =   0.40     timestep for ELM

  volume/ion in A,a.u.               =     473.68      3196.58
  Fermi-wavevector in a.u.,A,eV,Ry     =   0.449797  0.849992  2.752691  0.202317
  Thomas-Fermi vector in A             =   1.430086
 
 Write flags
   LWAVE        =      F    write WAVECAR
   LDOWNSAMPLE  =      F    k-point downsampling of WAVECAR
   LCHARG       =      F    write CHGCAR
   LVTOT        =      F    write LOCPOT, total local potential
   LVHAR        =      F    write LOCPOT, Hartree potential only
   LELF         =      F    write electronic localiz. function (ELF)
   LORBIT       =      0    0 simple, 1 ext, 2 COOP (PROOUT), +10 PAW based schemes


 Dipole corrections
   LMONO  =      F    monopole corrections only (constant potential shift)
   LDIPOL =      F    correct potential (dipole corrections)
   IDIPOL =      0    1-x, 2-y, 3-z, 4-all directions 
   EPSILON=  1.0000000 bulk dielectric constant

 Exchange correlation treatment:
   GGA     =    RP    GGA type
   LEXCH   =     9    internal setting for exchange type
   VOSKOWN=      0    Vosko Wilk Nusair interpolation
   LHFCALC =     F    Hartree Fock is set to
   LHFONE  =     F    Hartree Fock one center treatment
   AEXX    =    0.0000 exact exchange contribution

 Linear response parameters
   LEPSILON=     F    determine dielectric tensor
   LRPA    =     F    only Hartree local field effects (RPA)
   LNABLA  =     F    use nabla operator in PAW spheres
   LVEL    =     F    velocity operator in full k-point grid
   LINTERFAST=   F  fast interpolation
   KINTER  =     0    interpolate to denser k-point grid
   CSHIFT  =0.1000    complex shift for real part using Kramers Kronig
   OMEGAMAX=  -1.0    maximum frequency
   DEG_THRESHOLD= 0.2000000E-02 threshold for treating states as degnerate
   RTIME   =   -0.100 relaxation time in fs
  (WPLASMAI=    0.000 imaginary part of plasma frequency in eV, 0.658/RTIME)
   DFIELD  = 0.0000000 0.0000000 0.0000000 field for delta impulse in time
 
 Orbital magnetization related:
   ORBITALMAG=     F  switch on orbital magnetization
   LCHIMAG   =     F  perturbation theory with respect to B field
   DQ        =  0.001000  dq finite difference perturbation B field
   LLRAUG    =     F  two centre corrections for induced B field



--------------------------------------------------------------------------------------------------------


 Static calculation
 charge density and potential will be updated during run
 non-spin polarized calculation
 RMM-DIIS sequential band-by-band and
  variant of blocked Davidson during initial phase
 perform sub-space diagonalisation
    before iterative eigenvector-optimisation
 modified Broyden-mixing scheme, WC =      100.0
 initial mixing is a Kerker type mixing with AMIX =  0.4000 and BMIX =      1.0000
 Hartree-type preconditioning will be used
 using additional bands           56
 real space projection scheme for non local part
 use partial core corrections
 calculate Harris-corrections to forces 
   (improved forces if not selfconsistent)
 use gradient corrections 
 use of overlap-Matrix (Vanderbilt PP)
 Methfessel and Paxton  Order N= 2 SIGMA  =   0.20


--------------------------------------------------------------------------------------------------------


  energy-cutoff  :      400.00
  volume of cell :    27000.00
      direct lattice vectors                 reciprocal lattice vectors
    30.000000000  0.000000000  0.000000000     0.033333333  0.000000000  0.000000000
     0.000000000 30.000000000  0.000000000     0.000000000  0.033333333  0.000000000
     0.000000000  0.000000000 30.000000000     0.000000000  0.000000000  0.033333333

  length of vectors
    30.000000000 30.000000000 30.000000000     0.033333333  0.033333333  0.033333333


 
 k-points in units of 2pi/SCALE and weight: K-points                                
   0.00000000  0.00000000  0.00000000       1.000
 
 k-points in reciprocal lattice and weights: K-points                                
   0.00000000  0.00000000  0.00000000       1.000
 
 position of ions in fractional coordinates (direct lattice) 
   0.44576020  0.32826710  0.41691983
   0.67173288  0.55423978  0.41691983
   0.55423980  0.32826710  0.41691983
   0.32826712  0.55423978  0.41691983
   0.50000000  0.38250690  0.34021317
   0.50000000  0.38250690  0.65978680
   0.50000000  0.27609440  0.50000000
   0.27609443  0.49999998  0.50000000
   0.72390557  0.49999998  0.50000000
   0.50000000  0.72390555  0.50000000
   0.61195280  0.38804720  0.34167483
   0.61195280  0.38804720  0.65832513
   0.38804722  0.61195278  0.34167483
   0.38804722  0.61195278  0.65832513
   0.38804720  0.38804720  0.34167483
   0.38804720  0.38804720  0.65832513
   0.61195278  0.61195278  0.34167483
   0.61195278  0.61195278  0.65832513
   0.44576020  0.32826710  0.58308023
   0.67173288  0.55423978  0.58308023
   0.55791699  0.44208301  0.41809300
   0.32826705  0.44576024  0.41691983
   0.55423973  0.67173293  0.41691983
   0.55423980  0.32826710  0.58308023
   0.32826712  0.55423978  0.58308023
   0.67173295  0.44576024  0.41691983
   0.44576027  0.67173293  0.41691983
   0.44208301  0.44208301  0.41809300
   0.50000000  0.38416601  0.50000000
   0.61749315  0.50000005  0.34021317
   0.61749315  0.50000005  0.65978680
   0.38250685  0.50000005  0.34021317
   0.38250685  0.50000005  0.65978680
   0.38317830  0.38317830  0.50000000
   0.61682172  0.61682172  0.50000000
   0.61682170  0.38317830  0.50000000
   0.38317828  0.61682172  0.50000000
   0.50000000  0.50000000  0.33478917
   0.50000000  0.50000000  0.66521087
   0.32826705  0.44576024  0.58308023
   0.55423973  0.67173293  0.58308023
   0.55791699  0.44208301  0.58190703
   0.44208298  0.55791702  0.41809300
   0.44208301  0.44208301  0.58190703
   0.67173295  0.44576024  0.58308023
   0.44576027  0.67173293  0.58308023
   0.55791702  0.55791702  0.41809300
   0.38416599  0.50000002  0.50000000
   0.61583401  0.50000002  0.50000000
   0.50000000  0.61749319  0.34021317
   0.50000000  0.61749319  0.65978680
   0.50000000  0.50000000  0.50000000
   0.44208298  0.55791702  0.58190703
   0.55791702  0.55791702  0.58190703
   0.50000000  0.61583404  0.50000000
   0.47873337  0.45819637  0.30195057
   0.47480453  0.45047350  0.26536260
 
 position of ions in cartesian coordinates  (Angst):
  13.37280588  9.84801292 12.50759500
  20.15198637 16.62719342 12.50759500
  16.62719412  9.84801292 12.50759500
   9.84801363 16.62719342 12.50759500
  15.00000000 11.47520705 10.20639500
  15.00000000 11.47520705 19.79360400
  15.00000000  8.28283206 15.00000000
   8.28283277 14.99999929 15.00000000
  21.71716723 14.99999929 15.00000000
  15.00000000 21.71716652 14.99999999
  18.35858397 11.64141603 10.25024500
  18.35858397 11.64141603 19.74975399
  11.64141674 18.35858326 10.25024500
  11.64141674 18.35858326 19.74975400
  11.64141603 11.64141603 10.25024500
  11.64141603 11.64141603 19.74975400
  18.35858326 18.35858326 10.25024500
  18.35858326 18.35858326 19.74975400
  13.37280588  9.84801291 17.49240700
  20.15198638 16.62719341 17.49240700
  16.73750985 13.26249015 12.54279000
   9.84801151 13.37280729 12.50759500
  16.62719200 20.15198779 12.50759500
  16.62719412  9.84801292 17.49240700
   9.84801363 16.62719342 17.49240700
  20.15198849 13.37280729 12.50759500
  13.37280800 20.15198779 12.50759500
  13.26249015 13.26249015 12.54279000
  15.00000000 11.52498029 15.00000000
  18.52479437 15.00000140 10.20639500
  18.52479437 15.00000141 19.79360400
  11.47520562 15.00000141 10.20639501
  11.47520563 15.00000141 19.79360400
  11.49534898 11.49534898 15.00000000
  18.50465172 18.50465172 15.00000000
  18.50465102 11.49534898 15.00000000
  11.49534828 18.50465172 15.00000000
  15.00000000 15.00000000 10.04367500
  15.00000000 15.00000000 19.95632599
   9.84801151 13.37280729 17.49240700
  16.62719200 20.15198779 17.49240700
  16.73750985 13.26249015 17.45721100
  13.26248944 16.73751056 12.54279001
  13.26249015 13.26249015 17.45721100
  20.15198849 13.37280729 17.49240699
  13.37280800 20.15198779 17.49240700
  16.73751056 16.73751056 12.54279000
  11.52497959 15.00000071 15.00000000
  18.47502041 15.00000071 15.00000000
  14.99999999 18.52479579 10.20639500
  15.00000000 18.52479578 19.79360400
  15.00000000 15.00000000 15.00000000
  13.26248944 16.73751057 17.45721101
  16.73751056 16.73751057 17.45721100
  15.00000000 18.47502112 15.00000000
  14.36200100 13.74589100  9.05851700
  14.24413600 13.51420500  7.96087800
 


--------------------------------------------------------------------------------------------------------


 k-point  1 :   0.0000 0.0000 0.0000  plane waves:  490521

 maximum and minimum number of plane-waves per node :    490521   490521

 maximum number of plane-waves:    490521
 maximum index in each direction: 
   IXMAX=   48   IYMAX=   48   IZMAX=   48
   IXMIN=  -48   IYMIN=  -48   IZMIN=  -48


 serial   3D FFT for wavefunctions
 parallel 3D FFT for charge:
    minimum data exchange during FFTs selected (reduces bandwidth)


 total amount of memory used by VASP MPI-rank0  5486941. kBytes
=======================================================================

   base      :      30000. kBytes
   nonlr-proj:      17126. kBytes
   fftplans  :     924480. kBytes
   grid      :    1872000. kBytes
   one-center:        886. kBytes
   wavefun   :    2642449. kBytes
 
     INWAV:  cpu time    0.0001: real time    0.0005
 Broyden mixing: mesh for mixing (old mesh)
   NGX = 97   NGY = 97   NGZ = 97
  (NGX  =300   NGY  =300   NGZ  =300)
  gives a total of 912673 points

 initial charge density was supplied:
 charge density of overlapping atoms calculated
 number of electron     560.0000000 magnetization 
 keeping initial charge density in first step


--------------------------------------------------------------------------------------------------------


 Maximum index for non-local projection operator         1763
 Maximum index for augmentation-charges         5898 (set IRDMAX)


--------------------------------------------------------------------------------------------------------


 First call to EWALD:  gamma=   0.059
 Maximum number of real-space cells 3x 3x 3
 Maximum number of reciprocal cells 3x 3x 3

    FEWALD:  cpu time    0.0149: real time    0.0149


--------------------------------------- Iteration      1(   1)  ---------------------------------------


    POTLOK:  cpu time   14.2862: real time   14.2916
    SETDIJ:  cpu time    0.1182: real time    0.1182
     EDDAV:  cpu time  350.7936: real time  350.8825
       DOS:  cpu time    0.0012: real time    0.0011
    --------------------------------------------
      LOOP:  cpu time  365.1991: real time  365.2935

 eigenvalue-minimisations  :   688
 total energy-change (2. order) : 0.4399515E+04  (-0.1005182E+05)
 number of electron     560.0000000 magnetization 
 augmentation part      560.0000000 magnetization 

 Free energy of the ion-electron system (eV)
  ---------------------------------------------------
  alpha Z        PSCENC =        75.25431677
  Ewald energy   TEWEN  =    139523.28450374
  -Hartree energ DENC   =   -182875.01366561
  -exchange      EXHF   =         0.00000000
  -V(xc)+E(xc)   XCENC  =     -1702.20438276
  PAW double counting   =     44873.02882129   -41398.84523641
  entropy T*S    EENTRO =         0.02367479
  eigenvalues    EBANDS =       817.48149166
  atomic energy  EATOM  =     45086.50549395
  Solvation  Ediel_sol  =         0.00000000
  ---------------------------------------------------
  free energy    TOTEN  =      4399.51501742 eV

  energy without entropy =     4399.49134263  energy(sigma->0) =     4399.50909872


--------------------------------------------------------------------------------------------------------




--------------------------------------- Iteration      1(   2)  ---------------------------------------


     EDDAV:  cpu time  564.1072: real time  564.1278
       DOS:  cpu time    0.0013: real time    0.0013
    --------------------------------------------
      LOOP:  cpu time  564.1084: real time  564.1291

 eigenvalue-minimisations  :  1224
 total energy-change (2. order) :-0.2385622E+04  (-0.2144964E+04)
 number of electron     560.0000000 magnetization 
 augmentation part      560.0000000 magnetization 

 Free energy of the ion-electron system (eV)
  ---------------------------------------------------
  alpha Z        PSCENC =        75.25431677
  Ewald energy   TEWEN  =    139523.28450374
  -Hartree energ DENC   =   -182875.01366561
  -exchange      EXHF   =         0.00000000
  -V(xc)+E(xc)   XCENC  =     -1702.20438276
  PAW double counting   =     44873.02882129   -41398.84523641
  entropy T*S    EENTRO =        -0.02424162
  eigenvalues    EBANDS =     -1568.09219322
  atomic energy  EATOM  =     45086.50549395
  Solvation  Ediel_sol  =         0.00000000
  ---------------------------------------------------
  free energy    TOTEN  =      2013.89341614 eV

  energy without entropy =     2013.91765775  energy(sigma->0) =     2013.89947654


--------------------------------------------------------------------------------------------------------




--------------------------------------- Iteration      1(   3)  ---------------------------------------


     EDDAV:  cpu time  475.0581: real time  475.0998
       DOS:  cpu time    0.0010: real time    0.0010
    --------------------------------------------
      LOOP:  cpu time  475.0592: real time  475.1008

 eigenvalue-minimisations  :  1000
 total energy-change (2. order) :-0.1785248E+04  (-0.1680620E+04)
 number of electron     560.0000000 magnetization 
 augmentation part      560.0000000 magnetization 

 Free energy of the ion-electron system (eV)
  ---------------------------------------------------
  alpha Z        PSCENC =        75.25431677
  Ewald energy   TEWEN  =    139523.28450374
  -Hartree energ DENC   =   -182875.01366561
  -exchange      EXHF   =         0.00000000
  -V(xc)+E(xc)   XCENC  =     -1702.20438276
  PAW double counting   =     44873.02882129   -41398.84523641
  entropy T*S    EENTRO =        -0.04971530
  eigenvalues    EBANDS =     -3353.31486465
  atomic energy  EATOM  =     45086.50549395
  Solvation  Ediel_sol  =         0.00000000
  ---------------------------------------------------
  free energy    TOTEN  =       228.64527102 eV

  energy without entropy =      228.69498632  energy(sigma->0) =      228.65769985


--------------------------------------------------------------------------------------------------------




--------------------------------------- Iteration      1(   4)  ---------------------------------------


     EDDAV:  cpu time  409.2057: real time  409.2447
       DOS:  cpu time    0.0011: real time    0.0011
    --------------------------------------------
      LOOP:  cpu time  409.2069: real time  409.2459

 eigenvalue-minimisations  :   832
 total energy-change (2. order) :-0.3654922E+03  (-0.3117218E+03)
 number of electron     560.0000000 magnetization 
 augmentation part      560.0000000 magnetization 

 Free energy of the ion-electron system (eV)
  ---------------------------------------------------
  alpha Z        PSCENC =        75.25431677
  Ewald energy   TEWEN  =    139523.28450374
  -Hartree energ DENC   =   -182875.01366561
  -exchange      EXHF   =         0.00000000
  -V(xc)+E(xc)   XCENC  =     -1702.20438276
  PAW double counting   =     44873.02882129   -41398.84523641
  entropy T*S    EENTRO =         0.00246967
  eigenvalues    EBANDS =     -3718.85923203
  atomic energy  EATOM  =     45086.50549395
  Solvation  Ediel_sol  =         0.00000000
  ---------------------------------------------------
  free energy    TOTEN  =      -136.84691140 eV

  energy without entropy =     -136.84938106  energy(sigma->0) =     -136.84752881


--------------------------------------------------------------------------------------------------------




--------------------------------------- Iteration      1(   5)  ---------------------------------------


     EDDAV:  cpu time  494.6446: real time  494.6918
       DOS:  cpu time    0.0014: real time    0.0014
    CHARGE:  cpu time   25.0140: real time   25.0158
    MIXING:  cpu time    0.4505: real time    0.4505
    --------------------------------------------
      LOOP:  cpu time  520.1106: real time  520.1595

 eigenvalue-minimisations  :  1048
 total energy-change (2. order) :-0.4364451E+02  (-0.3600599E+02)
 number of electron     559.9999833 magnetization 
 augmentation part      245.0023185 magnetization 

 Broyden mixing:
  rms(total) = 0.18596E+01    rms(broyden)= 0.18589E+01
  rms(prec ) = 0.19539E+01
  weight for this iteration     100.00

 Free energy of the ion-electron system (eV)
  ---------------------------------------------------
  alpha Z        PSCENC =        75.25431677
  Ewald energy   TEWEN  =    139523.28450374
  -Hartree energ DENC   =   -182875.01366561
  -exchange      EXHF   =         0.00000000
  -V(xc)+E(xc)   XCENC  =     -1702.20438276
  PAW double counting   =     44873.02882129   -41398.84523641
  entropy T*S    EENTRO =         0.51885870
  eigenvalues    EBANDS =     -3763.02012672
  atomic energy  EATOM  =     45086.50549395
  Solvation  Ediel_sol  =         0.00000000
  ---------------------------------------------------
  free energy    TOTEN  =      -180.49141705 eV

  energy without entropy =     -181.01027575  energy(sigma->0) =     -180.62113173


--------------------------------------------------------------------------------------------------------




--------------------------------------- Iteration      1(   6)  ---------------------------------------


    POTLOK:  cpu time   12.9855: real time   12.9890
    SETDIJ:  cpu time    0.1191: real time    0.1191
    EDDIAG:  cpu time   66.1352: real time   66.1416
  RMM-DIIS:  cpu time  181.4874: real time  181.5027
    ORTHCH:  cpu time   13.2101: real time   13.2122
       DOS:  cpu time    0.0014: real time    0.0014
    CHARGE:  cpu time   24.7521: real time   24.7542
    MIXING:  cpu time    0.4515: real time    0.4515
    --------------------------------------------
      LOOP:  cpu time  299.1423: real time  299.1716

 eigenvalue-minimisations  :   727
 total energy-change (2. order) :-0.1325211E+00  (-0.6678439E+01)
 number of electron     559.9999882 magnetization 
 augmentation part      240.4565728 magnetization 

 Broyden mixing:
  rms(total) = 0.25578E+01    rms(broyden)= 0.25575E+01
  rms(prec ) = 0.29613E+01
  weight for this iteration     100.00

 eigenvalues of (default mixing * dielectric matrix)
  average eigenvalue GAMMA=   0.3635
  0.3635

 Free energy of the ion-electron system (eV)
  ---------------------------------------------------
  alpha Z        PSCENC =        75.25431677
  Ewald energy   TEWEN  =    139523.28450374
  -Hartree energ DENC   =   -183271.86768965
  -exchange      EXHF   =         0.00000000
  -V(xc)+E(xc)   XCENC  =     -1695.68016379
  PAW double counting   =     45698.10302975   -42197.90639087
  entropy T*S    EENTRO =        -0.26204287
  eigenvalues    EBANDS =     -3398.05499517
  atomic energy  EATOM  =     45086.50549395
  Solvation  Ediel_sol  =         0.00000000
  ---------------------------------------------------
  free energy    TOTEN  =      -180.62393814 eV

  energy without entropy =     -180.36189527  energy(sigma->0) =     -180.55842742


--------------------------------------------------------------------------------------------------------




--------------------------------------- Iteration      1(   7)  ---------------------------------------


    POTLOK:  cpu time   12.9386: real time   12.9405
    SETDIJ:  cpu time    0.1202: real time    0.1202
    EDDIAG:  cpu time   67.7322: real time   67.7390
  RMM-DIIS:  cpu time  218.2587: real time  218.2784
    ORTHCH:  cpu time   13.3347: real time   13.3367
       DOS:  cpu time    0.0014: real time    0.0014
    CHARGE:  cpu time   24.9119: real time   24.9126
    MIXING:  cpu time    0.4738: real time    0.4738
    --------------------------------------------
      LOOP:  cpu time  337.7716: real time  337.8027

 eigenvalue-minimisations  :   858
 total energy-change (2. order) :-0.4888315E+01  (-0.2368612E+01)
 number of electron     559.9999808 magnetization 
 augmentation part      239.6919287 magnetization 

 Broyden mixing:
  rms(total) = 0.27996E+01    rms(broyden)= 0.27994E+01
  rms(prec ) = 0.34422E+01
  weight for this iteration     100.00

 eigenvalues of (default mixing * dielectric matrix)
  average eigenvalue GAMMA=   0.3370
  0.5207  0.1534

 Free energy of the ion-electron system (eV)
  ---------------------------------------------------
  alpha Z        PSCENC =        75.25431677
  Ewald energy   TEWEN  =    139523.28450374
  -Hartree energ DENC   =   -183365.72901492
  -exchange      EXHF   =         0.00000000
  -V(xc)+E(xc)   XCENC  =     -1695.97114515
  PAW double counting   =     45783.63130543   -42280.97888361
  entropy T*S    EENTRO =        -0.11880301
  eigenvalues    EBANDS =     -3311.39002663
  atomic energy  EATOM  =     45086.50549395
  Solvation  Ediel_sol  =         0.00000000
  ---------------------------------------------------
  free energy    TOTEN  =      -185.51225344 eV

  energy without entropy =     -185.39345043  energy(sigma->0) =     -185.48255269


--------------------------------------------------------------------------------------------------------




--------------------------------------- Iteration      1(   8)  ---------------------------------------


    POTLOK:  cpu time   13.0745: real time   13.0771
    SETDIJ:  cpu time    0.1216: real time    0.1216
    EDDIAG:  cpu time   67.6744: real time   67.6788
  RMM-DIIS:  cpu time  197.9778: real time  197.9962
    ORTHCH:  cpu time   13.2822: real time   13.2834
       DOS:  cpu time    0.0015: real time    0.0015
    CHARGE:  cpu time   25.1992: real time   25.2075
    MIXING:  cpu time    0.4961: real time    0.4961
    --------------------------------------------
      LOOP:  cpu time  317.8273: real time  317.8621

 eigenvalue-minimisations  :   784
 total energy-change (2. order) :-0.9934142E+00  (-0.9729220E+00)
 number of electron     559.9999806 magnetization 
 augmentation part      239.6152321 magnetization 

 Broyden mixing:
  rms(total) = 0.27830E+01    rms(broyden)= 0.27827E+01
  rms(prec ) = 0.32156E+01
  weight for this iteration     100.00

 eigenvalues of (default mixing * dielectric matrix)
  average eigenvalue GAMMA=   0.3514
  0.7541  0.1500  0.1500

 Free energy of the ion-electron system (eV)
  ---------------------------------------------------
  alpha Z        PSCENC =        75.25431677
  Ewald energy   TEWEN  =    139523.28450374
  -Hartree energ DENC   =   -183411.84111847
  -exchange      EXHF   =         0.00000000
  -V(xc)+E(xc)   XCENC  =     -1696.21855005
  PAW double counting   =     45851.11453952   -42346.74759293
  entropy T*S    EENTRO =        -0.15300086
  eigenvalues    EBANDS =     -3267.70425929
  atomic energy  EATOM  =     45086.50549395
  Solvation  Ediel_sol  =         0.00000000
  ---------------------------------------------------
  free energy    TOTEN  =      -186.50566763 eV

  energy without entropy =     -186.35266677  energy(sigma->0) =     -186.46741741


--------------------------------------------------------------------------------------------------------




--------------------------------------- Iteration      1(   9)  ---------------------------------------


    POTLOK:  cpu time   12.8692: real time   12.8727
    SETDIJ:  cpu time    0.1182: real time    0.1182
    EDDIAG:  cpu time   67.3890: real time   67.3936
  RMM-DIIS:  cpu time  186.8221: real time  186.8247
    ORTHCH:  cpu time   13.2242: real time   13.2240
       DOS:  cpu time    0.0014: real time    0.0014
    CHARGE:  cpu time   24.9130: real time   24.9127
    MIXING:  cpu time    0.5426: real time    0.5426
    --------------------------------------------
      LOOP:  cpu time  305.8797: real time  305.8900

 eigenvalue-minimisations  :   719
 total energy-change (2. order) : 0.2862817E+01  (-0.9053669E+00)
 number of electron     559.9999836 magnetization 
 augmentation part      241.0771163 magnetization 

 Broyden mixing:
  rms(total) = 0.25670E+01    rms(broyden)= 0.25666E+01
  rms(prec ) = 0.29154E+01
  weight for this iteration     100.00

 eigenvalues of (default mixing * dielectric matrix)
  average eigenvalue GAMMA=   0.3432
  0.8975  0.1801  0.1801  0.1149

 Free energy of the ion-electron system (eV)
  ---------------------------------------------------
  alpha Z        PSCENC =        75.25431677
  Ewald energy   TEWEN  =    139523.28450374
  -Hartree energ DENC   =   -183416.99909361
  -exchange      EXHF   =         0.00000000
  -V(xc)+E(xc)   XCENC  =     -1696.36231115
  PAW double counting   =     45937.35992910   -42430.81731217
  entropy T*S    EENTRO =        -0.02699282
  eigenvalues    EBANDS =     -3261.84138466
  atomic energy  EATOM  =     45086.50549395
  Solvation  Ediel_sol  =         0.00000000
  ---------------------------------------------------
  free energy    TOTEN  =      -183.64285085 eV

  energy without entropy =     -183.61585804  energy(sigma->0) =     -183.63610265


--------------------------------------------------------------------------------------------------------




--------------------------------------- Iteration      1(  10)  ---------------------------------------


    POTLOK:  cpu time   12.9581: real time   12.9586
    SETDIJ:  cpu time    0.1195: real time    0.1195
    EDDIAG:  cpu time   67.2869: real time   67.2873
  RMM-DIIS:  cpu time  184.7037: real time  184.7034
    ORTHCH:  cpu time   13.5126: real time   13.5125
       DOS:  cpu time    0.0015: real time    0.0015
    CHARGE:  cpu time   24.9260: real time   24.9258
    MIXING:  cpu time    0.5695: real time    0.5695
    --------------------------------------------
      LOOP:  cpu time  304.0778: real time  304.0781

 eigenvalue-minimisations  :   731
 total energy-change (2. order) : 0.3008895E+01  (-0.5228107E+00)
 number of electron     559.9999814 magnetization 
 augmentation part      241.7702888 magnetization 

 Broyden mixing:
  rms(total) = 0.22944E+01    rms(broyden)= 0.22941E+01
  rms(prec ) = 0.26435E+01
  weight for this iteration     100.00

 eigenvalues of (default mixing * dielectric matrix)
  average eigenvalue GAMMA=   0.3308
  1.0189  0.1782  0.1782  0.1770  0.1019

 Free energy of the ion-electron system (eV)
  ---------------------------------------------------
  alpha Z        PSCENC =        75.25431677
  Ewald energy   TEWEN  =    139523.28450374
  -Hartree energ DENC   =   -183452.40888135
  -exchange      EXHF   =         0.00000000
  -V(xc)+E(xc)   XCENC  =     -1696.17827209
  PAW double counting   =     46004.80121742   -42496.33371825
  entropy T*S    EENTRO =        -0.10883217
  eigenvalues    EBANDS =     -3225.44978371
  atomic energy  EATOM  =     45086.50549395
  Solvation  Ediel_sol  =         0.00000000
  ---------------------------------------------------
  free energy    TOTEN  =      -180.63395571 eV

  energy without entropy =     -180.52512353  energy(sigma->0) =     -180.60674766


--------------------------------------------------------------------------------------------------------




--------------------------------------- Iteration      1(  11)  ---------------------------------------


    POTLOK:  cpu time   12.8716: real time   12.8723
    SETDIJ:  cpu time    0.1171: real time    0.1171
    EDDIAG:  cpu time   66.4686: real time   66.4693
  RMM-DIIS:  cpu time  183.3424: real time  183.3459
    ORTHCH:  cpu time   13.7103: real time   13.7103
       DOS:  cpu time    0.0015: real time    0.0015
    CHARGE:  cpu time   25.2795: real time   25.2796
    MIXING:  cpu time    0.6166: real time    0.6166
    --------------------------------------------
      LOOP:  cpu time  302.4075: real time  302.4124

 eigenvalue-minimisations  :   722
 total energy-change (2. order) : 0.1965975E+01  (-0.3860589E+00)
 number of electron     559.9999840 magnetization 
 augmentation part      241.7712744 magnetization 

 Broyden mixing:
  rms(total) = 0.16714E+01    rms(broyden)= 0.16711E+01
  rms(prec ) = 0.19336E+01
  weight for this iteration     100.00

 eigenvalues of (default mixing * dielectric matrix)
  average eigenvalue GAMMA=   0.3330
  1.1334  0.2457  0.2457  0.1416  0.1416  0.0901

 Free energy of the ion-electron system (eV)
  ---------------------------------------------------
  alpha Z        PSCENC =        75.25431677
  Ewald energy   TEWEN  =    139523.28450374
  -Hartree energ DENC   =   -183482.55978656
  -exchange      EXHF   =         0.00000000
  -V(xc)+E(xc)   XCENC  =     -1695.91880513
  PAW double counting   =     46063.77444087   -42553.28941370
  entropy T*S    EENTRO =        -0.07421891
  eigenvalues    EBANDS =     -3195.64451218
  atomic energy  EATOM  =     45086.50549395
  Solvation  Ediel_sol  =         0.00000000
  ---------------------------------------------------
  free energy    TOTEN  =      -178.66798115 eV

  energy without entropy =     -178.59376224  energy(sigma->0) =     -178.64942643


--------------------------------------------------------------------------------------------------------




--------------------------------------- Iteration      1(  12)  ---------------------------------------


    POTLOK:  cpu time   13.3582: real time   13.3591
    SETDIJ:  cpu time    0.1251: real time    0.1251
    EDDIAG:  cpu time   66.8312: real time   66.8311
  RMM-DIIS:  cpu time  175.9332: real time  175.9425
    ORTHCH:  cpu time   13.0201: real time   13.0200
       DOS:  cpu time    0.0014: real time    0.0014
    CHARGE:  cpu time   24.2753: real time   24.2750
    MIXING:  cpu time    0.6153: real time    0.6153
    --------------------------------------------
      LOOP:  cpu time  294.1598: real time  294.1695

 eigenvalue-minimisations  :   715
 total energy-change (2. order) : 0.7717954E+00  (-0.2788585E+00)
 number of electron     559.9999852 magnetization 
 augmentation part      241.7406735 magnetization 

 Broyden mixing:
  rms(total) = 0.17172E+01    rms(broyden)= 0.17168E+01
  rms(prec ) = 0.20731E+01
  weight for this iteration     100.00

 eigenvalues of (default mixing * dielectric matrix)
  average eigenvalue GAMMA=   0.3301
  1.2378  0.2940  0.2940  0.1440  0.1440  0.1060  0.0911

 Free energy of the ion-electron system (eV)
  ---------------------------------------------------
  alpha Z        PSCENC =        75.25431677
  Ewald energy   TEWEN  =    139523.28450374
  -Hartree energ DENC   =   -183512.46784225
  -exchange      EXHF   =         0.00000000
  -V(xc)+E(xc)   XCENC  =     -1695.51119638
  PAW double counting   =     46121.73500227   -42609.06201325
  entropy T*S    EENTRO =        -0.07691154
  eigenvalues    EBANDS =     -3167.55753902
  atomic energy  EATOM  =     45086.50549395
  Solvation  Ediel_sol  =         0.00000000
  ---------------------------------------------------
  free energy    TOTEN  =      -177.89618573 eV

  energy without entropy =     -177.81927418  energy(sigma->0) =     -177.87695784


--------------------------------------------------------------------------------------------------------




--------------------------------------- Iteration      1(  13)  ---------------------------------------


    POTLOK:  cpu time   12.4493: real time   12.4500
    SETDIJ:  cpu time    0.1172: real time    0.1172
    EDDIAG:  cpu time   65.0956: real time   65.0967
  RMM-DIIS:  cpu time  179.7948: real time  179.7969
    ORTHCH:  cpu time   12.9561: real time   12.9559
       DOS:  cpu time    0.0015: real time    0.0015
    CHARGE:  cpu time   24.2421: real time   24.2417
    MIXING:  cpu time    0.6512: real time    0.6512
    --------------------------------------------
      LOOP:  cpu time  295.3076: real time  295.3110

 eigenvalue-minimisations  :   728
 total energy-change (2. order) :-0.4976627E+00  (-0.1668588E+00)
 number of electron     559.9999835 magnetization 
 augmentation part      241.5536764 magnetization 

 Broyden mixing:
  rms(total) = 0.21740E+01    rms(broyden)= 0.21737E+01
  rms(prec ) = 0.26001E+01
  weight for this iteration     100.00

 eigenvalues of (default mixing * dielectric matrix)
  average eigenvalue GAMMA=   0.3284
  1.3706  0.3367  0.3367  0.1472  0.1472  0.1091  0.1091  0.0706

 Free energy of the ion-electron system (eV)
  ---------------------------------------------------
  alpha Z        PSCENC =        75.25431677
  Ewald energy   TEWEN  =    139523.28450374
  -Hartree energ DENC   =   -183536.37454093
  -exchange      EXHF   =         0.00000000
  -V(xc)+E(xc)   XCENC  =     -1695.13395563
  PAW double counting   =     46167.65628980   -42653.10230792
  entropy T*S    EENTRO =        -0.04247786
  eigenvalues    EBANDS =     -3146.44117035
  atomic energy  EATOM  =     45086.50549395
  Solvation  Ediel_sol  =         0.00000000
  ---------------------------------------------------
  free energy    TOTEN  =      -178.39384843 eV

  energy without entropy =     -178.35137056  energy(sigma->0) =     -178.38322896


--------------------------------------------------------------------------------------------------------




--------------------------------------- Iteration      1(  14)  ---------------------------------------


    POTLOK:  cpu time   12.5799: real time   12.5806
    SETDIJ:  cpu time    0.1177: real time    0.1177
    EDDIAG:  cpu time   64.8574: real time   64.8586
  RMM-DIIS:  cpu time  178.2843: real time  178.2831
    ORTHCH:  cpu time   13.3416: real time   13.3414
       DOS:  cpu time    0.0015: real time    0.0015
    CHARGE:  cpu time   24.8714: real time   24.8710
    MIXING:  cpu time    0.7173: real time    0.7173
    --------------------------------------------
      LOOP:  cpu time  294.7711: real time  294.7713

 eigenvalue-minimisations  :   720
 total energy-change (2. order) : 0.1742343E+00  (-0.1753927E+00)
 number of electron     559.9999800 magnetization 
 augmentation part      241.4274103 magnetization 

 Broyden mixing:
  rms(total) = 0.26354E+01    rms(broyden)= 0.26352E+01
  rms(prec ) = 0.30135E+01
  weight for this iteration     100.00

 eigenvalues of (default mixing * dielectric matrix)
  average eigenvalue GAMMA=   0.3304
  1.5266  0.4761  0.2890  0.1418  0.1418  0.1285  0.1285  0.0706  0.0706

 Free energy of the ion-electron system (eV)
  ---------------------------------------------------
  alpha Z        PSCENC =        75.25431677
  Ewald energy   TEWEN  =    139523.28450374
  -Hartree energ DENC   =   -183569.68124098
  -exchange      EXHF   =         0.00000000
  -V(xc)+E(xc)   XCENC  =     -1694.59182572
  PAW double counting   =     46228.86245792   -42711.83748712
  entropy T*S    EENTRO =        -0.01360932
  eigenvalues    EBANDS =     -3116.00222332
  atomic energy  EATOM  =     45086.50549395
  Solvation  Ediel_sol  =         0.00000000
  ---------------------------------------------------
  free energy    TOTEN  =      -178.21961409 eV

  energy without entropy =     -178.20600477  energy(sigma->0) =     -178.21621176


--------------------------------------------------------------------------------------------------------




--------------------------------------- Iteration      1(  15)  ---------------------------------------


    POTLOK:  cpu time   12.9096: real time   12.9106
    SETDIJ:  cpu time    0.1221: real time    0.1221
    EDDIAG:  cpu time   66.3107: real time   66.3113
  RMM-DIIS:  cpu time  173.7799: real time  173.7825
    ORTHCH:  cpu time   13.0438: real time   13.0436
       DOS:  cpu time    0.0014: real time    0.0014
    CHARGE:  cpu time   24.7514: real time   24.7512
    MIXING:  cpu time    0.7391: real time    0.7391
    --------------------------------------------
      LOOP:  cpu time  291.6581: real time  291.6619

 eigenvalue-minimisations  :   703
 total energy-change (2. order) : 0.1872270E+01  (-0.1736202E+00)
 number of electron     559.9999839 magnetization 
 augmentation part      241.1776484 magnetization 

 Broyden mixing:
  rms(total) = 0.14729E+01    rms(broyden)= 0.14725E+01
  rms(prec ) = 0.17050E+01
  weight for this iteration     100.00

 eigenvalues of (default mixing * dielectric matrix)
  average eigenvalue GAMMA=   0.3178
  1.5906  0.5005  0.2612  0.1668  0.1668  0.1302  0.1302  0.0907  0.0708  0.0708

 Free energy of the ion-electron system (eV)
  ---------------------------------------------------
  alpha Z        PSCENC =        75.25431677
  Ewald energy   TEWEN  =    139523.28450374
  -Hartree energ DENC   =   -183613.27351168
  -exchange      EXHF   =         0.00000000
  -V(xc)+E(xc)   XCENC  =     -1693.96249383
  PAW double counting   =     46297.77014908   -42777.89324441
  entropy T*S    EENTRO =         0.02982618
  eigenvalues    EBANDS =     -3074.06238438
  atomic energy  EATOM  =     45086.50549395
  Solvation  Ediel_sol  =         0.00000000
  ---------------------------------------------------
  free energy    TOTEN  =      -176.34734457 eV

  energy without entropy =     -176.37717076  energy(sigma->0) =     -176.35480112


--------------------------------------------------------------------------------------------------------




--------------------------------------- Iteration      1(  16)  ---------------------------------------


    POTLOK:  cpu time   12.7770: real time   12.7774
    SETDIJ:  cpu time    0.1212: real time    0.1212
    EDDIAG:  cpu time   65.8454: real time   65.8458
  RMM-DIIS:  cpu time  179.6030: real time  179.6035
    ORTHCH:  cpu time   13.3364: real time   13.3364
       DOS:  cpu time    0.0015: real time    0.0015
    CHARGE:  cpu time   24.7635: real time   24.7635
    MIXING:  cpu time    0.7846: real time    0.7846
    --------------------------------------------
      LOOP:  cpu time  297.2325: real time  297.2339

 eigenvalue-minimisations  :   715
 total energy-change (2. order) : 0.6193107E+00  (-0.6972679E-01)
 number of electron     559.9999843 magnetization 
 augmentation part      241.2516161 magnetization 

 Broyden mixing:
  rms(total) = 0.11255E+01    rms(broyden)= 0.11253E+01
  rms(prec ) = 0.13473E+01
  weight for this iteration     100.00

 eigenvalues of (default mixing * dielectric matrix)
  average eigenvalue GAMMA=   0.3069
  1.6106  0.5375  0.2435  0.2435  0.1277  0.1277  0.1519  0.1231  0.0776  0.0667
  0.0667

 Free energy of the ion-electron system (eV)
  ---------------------------------------------------
  alpha Z        PSCENC =        75.25431677
  Ewald energy   TEWEN  =    139523.28450374
  -Hartree energ DENC   =   -183622.21960615
  -exchange      EXHF   =         0.00000000
  -V(xc)+E(xc)   XCENC  =     -1693.76406831
  PAW double counting   =     46318.01148049   -42797.20743426
  entropy T*S    EENTRO =         0.04748916
  eigenvalues    EBANDS =     -3065.64020930
  atomic energy  EATOM  =     45086.50549395
  Solvation  Ediel_sol  =         0.00000000
  ---------------------------------------------------
  free energy    TOTEN  =      -175.72803390 eV

  energy without entropy =     -175.77552307  energy(sigma->0) =     -175.73990619


--------------------------------------------------------------------------------------------------------




--------------------------------------- Iteration      1(  17)  ---------------------------------------


    POTLOK:  cpu time   12.8888: real time   12.8897
    SETDIJ:  cpu time    0.1222: real time    0.1222
    EDDIAG:  cpu time   65.7866: real time   65.7874
  RMM-DIIS:  cpu time  181.6561: real time  181.6570
    ORTHCH:  cpu time   13.4034: real time   13.4033
       DOS:  cpu time    0.0015: real time    0.0015
    CHARGE:  cpu time   25.4767: real time   25.4787
    MIXING:  cpu time    0.8340: real time    0.8340
    --------------------------------------------
      LOOP:  cpu time  300.1693: real time  300.1738

 eigenvalue-minimisations  :   720
 total energy-change (2. order) : 0.1982360E+00  (-0.3016059E-01)
 number of electron     559.9999842 magnetization 
 augmentation part      241.2300193 magnetization 

 Broyden mixing:
  rms(total) = 0.97376E+00    rms(broyden)= 0.97350E+00
  rms(prec ) = 0.11423E+01
  weight for this iteration     100.00

 eigenvalues of (default mixing * dielectric matrix)
  average eigenvalue GAMMA=   0.3188
  1.6525  0.6772  0.3394  0.3394  0.1400  0.1400  0.1263  0.1263  0.0929  0.0702
  0.0702  0.0510

 Free energy of the ion-electron system (eV)
  ---------------------------------------------------
  alpha Z        PSCENC =        75.25431677
  Ewald energy   TEWEN  =    139523.28450374
  -Hartree energ DENC   =   -183630.17222848
  -exchange      EXHF   =         0.00000000
  -V(xc)+E(xc)   XCENC  =     -1693.64833689
  PAW double counting   =     46326.58304229   -42805.22031711
  entropy T*S    EENTRO =         0.05295437
  eigenvalues    EBANDS =     -3058.16922655
  atomic energy  EATOM  =     45086.50549395
  Solvation  Ediel_sol  =         0.00000000
  ---------------------------------------------------
  free energy    TOTEN  =      -175.52979791 eV

  energy without entropy =     -175.58275229  energy(sigma->0) =     -175.54303650


--------------------------------------------------------------------------------------------------------




--------------------------------------- Iteration      1(  18)  ---------------------------------------


    POTLOK:  cpu time   13.1182: real time   13.1191
    SETDIJ:  cpu time    0.1200: real time    0.1200
    EDDIAG:  cpu time   67.3859: real time   67.3867
  RMM-DIIS:  cpu time  180.8306: real time  180.8316
    ORTHCH:  cpu time   13.3025: real time   13.3024
       DOS:  cpu time    0.0015: real time    0.0015
    CHARGE:  cpu time   24.7810: real time   24.7807
    MIXING:  cpu time    0.8930: real time    0.8930
    --------------------------------------------
      LOOP:  cpu time  300.4327: real time  300.4349

 eigenvalue-minimisations  :   713
 total energy-change (2. order) :-0.2283316E+00  (-0.3961060E-01)
 number of electron     559.9999856 magnetization 
 augmentation part      241.1820179 magnetization 

 Broyden mixing:
  rms(total) = 0.15104E+01    rms(broyden)= 0.15102E+01
  rms(prec ) = 0.17970E+01
  weight for this iteration     100.00

 eigenvalues of (default mixing * dielectric matrix)
  average eigenvalue GAMMA=   0.3146
  1.6754  0.7824  0.3678  0.3678  0.1451  0.1451  0.1292  0.1292  0.0889  0.0723
  0.0723  0.0707  0.0438

 Free energy of the ion-electron system (eV)
  ---------------------------------------------------
  alpha Z        PSCENC =        75.25431677
  Ewald energy   TEWEN  =    139523.28450374
  -Hartree energ DENC   =   -183651.06022254
  -exchange      EXHF   =         0.00000000
  -V(xc)+E(xc)   XCENC  =     -1693.37044337
  PAW double counting   =     46345.33295036   -42822.63588163
  entropy T*S    EENTRO =         0.13766406
  eigenvalues    EBANDS =     -3039.20651083
  atomic energy  EATOM  =     45086.50549395
  Solvation  Ediel_sol  =         0.00000000
  ---------------------------------------------------
  free energy    TOTEN  =      -175.75812949 eV

  energy without entropy =     -175.89579355  energy(sigma->0) =     -175.79254550


--------------------------------------------------------------------------------------------------------




--------------------------------------- Iteration      1(  19)  ---------------------------------------


    POTLOK:  cpu time   12.6473: real time   12.6477
    SETDIJ:  cpu time    0.1222: real time    0.1222
    EDDIAG:  cpu time   66.0106: real time   66.0158
  RMM-DIIS:  cpu time  177.1527: real time  177.1721
    ORTHCH:  cpu time   13.2401: real time   13.2409
       DOS:  cpu time    0.0015: real time    0.0015
    CHARGE:  cpu time   24.8208: real time   24.8205
    MIXING:  cpu time    0.9557: real time    0.9557
    --------------------------------------------
      LOOP:  cpu time  294.9509: real time  294.9763

 eigenvalue-minimisations  :   704
 total energy-change (2. order) : 0.3236952E+00  (-0.2919189E-01)
 number of electron     559.9999853 magnetization 
 augmentation part      241.1261667 magnetization 

 Broyden mixing:
  rms(total) = 0.94755E+00    rms(broyden)= 0.94735E+00
  rms(prec ) = 0.10841E+01
  weight for this iteration     100.00

 eigenvalues of (default mixing * dielectric matrix)
  average eigenvalue GAMMA=   0.3167
  1.7406  0.8509  0.4005  0.4005  0.1649  0.1649  0.1265  0.1265  0.1124  0.1015
  0.0690  0.0690  0.0646  0.0418

 Free energy of the ion-electron system (eV)
  ---------------------------------------------------
  alpha Z        PSCENC =        75.25431677
  Ewald energy   TEWEN  =    139523.28450374
  -Hartree energ DENC   =   -183663.82273601
  -exchange      EXHF   =         0.00000000
  -V(xc)+E(xc)   XCENC  =     -1693.21991098
  PAW double counting   =     46354.45581127   -42830.98723116
  entropy T*S    EENTRO =         0.03257204
  eigenvalues    EBANDS =     -3026.93725394
  atomic energy  EATOM  =     45086.50549395
  Solvation  Ediel_sol  =         0.00000000
  ---------------------------------------------------
  free energy    TOTEN  =      -175.43443432 eV

  energy without entropy =     -175.46700636  energy(sigma->0) =     -175.44257733


--------------------------------------------------------------------------------------------------------




--------------------------------------- Iteration      1(  20)  ---------------------------------------


    POTLOK:  cpu time   12.5953: real time   12.5963
    SETDIJ:  cpu time    0.1162: real time    0.1162
    EDDIAG:  cpu time   66.1135: real time   66.1131
  RMM-DIIS:  cpu time  176.2132: real time  176.2145
    ORTHCH:  cpu time   13.1603: real time   13.1602
       DOS:  cpu time    0.0015: real time    0.0015
    CHARGE:  cpu time   24.8678: real time   24.8677
    MIXING:  cpu time    0.9856: real time    0.9856
    --------------------------------------------
      LOOP:  cpu time  294.0535: real time  294.0551

 eigenvalue-minimisations  :   701
 total energy-change (2. order) :-0.1187718E-01  (-0.3010740E-01)
 number of electron     559.9999853 magnetization 
 augmentation part      241.1909526 magnetization 

 Broyden mixing:
  rms(total) = 0.11554E+01    rms(broyden)= 0.11552E+01
  rms(prec ) = 0.13788E+01
  weight for this iteration     100.00

 eigenvalues of (default mixing * dielectric matrix)
  average eigenvalue GAMMA=   0.3166
  1.7814  0.9265  0.4414  0.4414  0.1785  0.1785  0.1254  0.1254  0.1196  0.1196
  0.0770  0.0671  0.0671  0.0580  0.0421

 Free energy of the ion-electron system (eV)
  ---------------------------------------------------
  alpha Z        PSCENC =        75.25431677
  Ewald energy   TEWEN  =    139523.28450374
  -Hartree energ DENC   =   -183676.30832732
  -exchange      EXHF   =         0.00000000
  -V(xc)+E(xc)   XCENC  =     -1693.06477711
  PAW double counting   =     46364.23194269   -42839.94339246
  entropy T*S    EENTRO =         0.07632636
  eigenvalues    EBANDS =     -3015.48239813
  atomic energy  EATOM  =     45086.50549395
  Solvation  Ediel_sol  =         0.00000000
  ---------------------------------------------------
  free energy    TOTEN  =      -175.44631150 eV

  energy without entropy =     -175.52263786  energy(sigma->0) =     -175.46539309


--------------------------------------------------------------------------------------------------------




--------------------------------------- Iteration      1(  21)  ---------------------------------------


    POTLOK:  cpu time   12.3348: real time   12.3355
    SETDIJ:  cpu time    0.1195: real time    0.1195
    EDDIAG:  cpu time   65.9899: real time   65.9905
  RMM-DIIS:  cpu time  181.3452: real time  181.3492
    ORTHCH:  cpu time   13.6291: real time   13.6289
       DOS:  cpu time    0.0016: real time    0.0016
    CHARGE:  cpu time   25.7368: real time   25.7365
    MIXING:  cpu time    1.0568: real time    1.0568
    --------------------------------------------
      LOOP:  cpu time  300.2136: real time  300.2185

 eigenvalue-minimisations  :   705
 total energy-change (2. order) : 0.2363498E+00  (-0.2267540E-01)
 number of electron     559.9999838 magnetization 
 augmentation part      241.2462125 magnetization 

 Broyden mixing:
  rms(total) = 0.86727E+00    rms(broyden)= 0.86704E+00
  rms(prec ) = 0.10254E+01
  weight for this iteration     100.00

 eigenvalues of (default mixing * dielectric matrix)
  average eigenvalue GAMMA=   0.3250
  1.8152  1.0613  0.4830  0.4830  0.2601  0.1660  0.1660  0.1278  0.1278  0.1080
  0.0970  0.0765  0.0682  0.0682  0.0511  0.0409

 Free energy of the ion-electron system (eV)
  ---------------------------------------------------
  alpha Z        PSCENC =        75.25431677
  Ewald energy   TEWEN  =    139523.28450374
  -Hartree energ DENC   =   -183685.98366540
  -exchange      EXHF   =         0.00000000
  -V(xc)+E(xc)   XCENC  =     -1692.95539293
  PAW double counting   =     46367.74835830   -42842.87078702
  entropy T*S    EENTRO =         0.03371568
  eigenvalues    EBANDS =     -3006.22650476
  atomic energy  EATOM  =     45086.50549395
  Solvation  Ediel_sol  =         0.00000000
  ---------------------------------------------------
  free energy    TOTEN  =      -175.20996168 eV

  energy without entropy =     -175.24367735  energy(sigma->0) =     -175.21839060


--------------------------------------------------------------------------------------------------------




--------------------------------------- Iteration      1(  22)  ---------------------------------------


    POTLOK:  cpu time   12.6406: real time   12.6413
    SETDIJ:  cpu time    0.1182: real time    0.1182
    EDDIAG:  cpu time   65.9288: real time   65.9287
  RMM-DIIS:  cpu time  174.8010: real time  174.8013
    ORTHCH:  cpu time   13.2554: real time   13.2557
       DOS:  cpu time    0.0015: real time    0.0015
    CHARGE:  cpu time   24.3445: real time   24.3442
    MIXING:  cpu time    1.1101: real time    1.1101
    --------------------------------------------
      LOOP:  cpu time  292.2000: real time  292.2010

 eigenvalue-minimisations  :   696
 total energy-change (2. order) : 0.1060732E+00  (-0.2583346E-01)
 number of electron     559.9999839 magnetization 
 augmentation part      241.1705854 magnetization 

 Broyden mixing:
  rms(total) = 0.63265E+00    rms(broyden)= 0.63247E+00
  rms(prec ) = 0.72493E+00
  weight for this iteration     100.00

 eigenvalues of (default mixing * dielectric matrix)
  average eigenvalue GAMMA=   0.3418
  1.9467  1.1520  0.7063  0.3988  0.3988  0.1635  0.1635  0.1255  0.1255  0.1220
  0.1220  0.0786  0.0786  0.0681  0.0681  0.0507  0.0411

 Free energy of the ion-electron system (eV)
  ---------------------------------------------------
  alpha Z        PSCENC =        75.25431677
  Ewald energy   TEWEN  =    139523.28450374
  -Hartree energ DENC   =   -183706.27612655
  -exchange      EXHF   =         0.00000000
  -V(xc)+E(xc)   XCENC  =     -1692.76123359
  PAW double counting   =     46372.49103345   -42846.71960414
  entropy T*S    EENTRO =        -0.00661978
  eigenvalues    EBANDS =     -2986.87565229
  atomic energy  EATOM  =     45086.50549395
  Solvation  Ediel_sol  =         0.00000000
  ---------------------------------------------------
  free energy    TOTEN  =      -175.10388845 eV

  energy without entropy =     -175.09726867  energy(sigma->0) =     -175.10223351


--------------------------------------------------------------------------------------------------------




--------------------------------------- Iteration      1(  23)  ---------------------------------------


    POTLOK:  cpu time   12.6903: real time   12.6911
    SETDIJ:  cpu time    0.1203: real time    0.1203
    EDDIAG:  cpu time   65.6871: real time   65.6871
  RMM-DIIS:  cpu time  173.2974: real time  173.2999
    ORTHCH:  cpu time   13.3234: real time   13.3234
       DOS:  cpu time    0.0015: real time    0.0015
    CHARGE:  cpu time   24.7225: real time   24.7225
    MIXING:  cpu time    1.1634: real time    1.1634
    --------------------------------------------
      LOOP:  cpu time  291.0060: real time  291.0092

 eigenvalue-minimisations  :   693
 total energy-change (2. order) : 0.3771312E-01  (-0.2541687E-01)
 number of electron     559.9999851 magnetization 
 augmentation part      241.1652767 magnetization 

 Broyden mixing:
  rms(total) = 0.59623E+00    rms(broyden)= 0.59606E+00
  rms(prec ) = 0.67676E+00
  weight for this iteration     100.00

 eigenvalues of (default mixing * dielectric matrix)
  average eigenvalue GAMMA=   0.3505
[...]
 -0.008  -0.010   0.002   0.006   0.007  -0.007  -0.009   0.002
 -0.013  -0.017   0.004   0.010   0.011  -0.012  -0.016   0.004
 -0.014  -0.006   0.012   0.000   0.022  -0.014  -0.006   0.012
  0.000  -0.022  -0.007  -0.015  -0.000   0.000  -0.022  -0.007
 -0.022   0.000   0.009  -0.006  -0.016  -0.021   0.000   0.008
 -0.017  -0.007   0.015   0.000   0.026  -0.017  -0.007   0.014
  0.000  -0.027  -0.009  -0.018   0.000   0.000  -0.026  -0.008
 -0.026   0.000   0.010  -0.007  -0.019  -0.026   0.000   0.010
 total augmentation occupancy for first ion, spin component:           1
  1.539  -0.047   0.016   0.014   0.014   0.076  -0.006  -0.004   0.034  -0.007   0.112  -0.038   0.012   0.002   0.003  -0.019
 -0.047   1.402   0.029   0.081   0.006  -0.005   0.073   0.012  -0.014  -0.010   0.173  -0.051   0.021   0.000   0.003  -0.007
  0.016   0.029   1.530  -0.016   0.005  -0.004   0.012   0.079  -0.009   0.017  -0.037   0.010  -0.003  -0.004  -0.006   0.015
  0.014   0.081  -0.016   1.333   0.069   0.033  -0.013  -0.009   0.095  -0.028  -0.114   0.033  -0.003  -0.004  -0.003   0.001
  0.014   0.006   0.005   0.069   1.419  -0.008  -0.010   0.015  -0.028   0.071  -0.110   0.037  -0.002  -0.014  -0.008   0.026
  0.076  -0.005  -0.004   0.033  -0.008   0.218   0.017  -0.001  -0.046   0.002  -0.050   0.001   0.016  -0.009   0.035  -0.004
 -0.006   0.073   0.012  -0.013  -0.010   0.017   0.265  -0.023  -0.003   0.007  -0.106   0.009  -0.001   0.051  -0.010  -0.001
 -0.004   0.012   0.079  -0.009   0.015  -0.001  -0.023   0.216   0.011  -0.019   0.028  -0.002  -0.012   0.009  -0.018   0.003
  0.034  -0.014  -0.009   0.095  -0.028  -0.046  -0.003   0.011   0.262   0.009   0.042  -0.002  -0.009   0.035   0.004   0.000
 -0.007  -0.010   0.017  -0.028   0.071   0.002   0.007  -0.019   0.009   0.257   0.050  -0.002  -0.038   0.003   0.049   0.007
  0.112   0.173  -0.037  -0.114  -0.110  -0.050  -0.106   0.028   0.042   0.050   0.961  -0.142   0.084   0.015   0.065  -0.013
 -0.038  -0.051   0.010   0.033   0.037   0.001   0.009  -0.002  -0.002  -0.002  -0.142   0.023  -0.014  -0.003  -0.010   0.003
  0.012   0.021  -0.003  -0.003  -0.002   0.016  -0.001  -0.012  -0.009  -0.038   0.084  -0.014   0.029  -0.008  -0.004  -0.003
  0.002   0.000  -0.004  -0.004  -0.014  -0.009   0.051   0.009   0.035   0.003   0.015  -0.003  -0.008   0.035   0.004   0.000
  0.003   0.003  -0.006  -0.003  -0.008   0.035  -0.010  -0.018   0.004   0.049   0.065  -0.010  -0.004   0.004   0.034  -0.000
 -0.019  -0.007   0.015   0.001   0.026  -0.004  -0.001   0.003   0.000   0.007  -0.013   0.003  -0.003   0.000  -0.000   0.001
  0.001  -0.027  -0.008  -0.019   0.001   0.001  -0.008  -0.002  -0.006   0.000  -0.002   0.001   0.000  -0.003  -0.000   0.000
 -0.028   0.001   0.012  -0.007  -0.020  -0.006   0.001   0.003  -0.002  -0.007  -0.008   0.001  -0.000  -0.000  -0.003   0.000


------------------------ aborting loop because EDIFF is reached ----------------------------------------


    CHARGE:  cpu time   24.2789: real time   24.2786
    FORLOC:  cpu time    6.6543: real time    6.6543
    FORNL :  cpu time   63.0183: real time   63.0177
    STRESS:  cpu time  192.1704: real time  192.1747
    FORCOR:  cpu time   21.2892: real time   21.2893
    FORHAR:  cpu time    9.4206: real time    9.4207
    MIXING:  cpu time    3.2489: real time    3.2489
    OFIELD:  cpu time    0.0000: real time    0.0000

  FORCE on cell =-STRESS in cart. coord.  units (eV):
  Direction    XX          YY          ZZ          XY          YZ          ZX
  --------------------------------------------------------------------------------------
  Alpha Z    75.25432    75.25432    75.25432
  Ewald   44880.41082 45184.04832 49458.71951   113.55452   763.42371   416.86207
  Hartree 59803.64616 60001.37270 64071.68221    70.26404   648.66222   346.52875
  E(xc)   -2906.89354 -2905.88165 -2905.16943     0.23444     0.56052     0.45880
  Local  ************************************  -175.79532 -1394.15549  -753.62257
  n-local  -880.10543  -876.36752  -884.73818     1.71711     3.29461     2.02133
  augment  4106.25405  4100.59187  4102.73521    -2.24397    -4.18672    -2.65289
  Kinetic  7822.33804  7809.19774  7796.79718    -5.29637   -12.10593    -7.11035
  Fock        0.00000     0.00000     0.00000     0.00000     0.00000     0.00000
  -------------------------------------------------------------------------------------
  Total    -111.77315  -109.92210  -103.38610     2.43445     5.49290     2.48514
  in kB      -6.63261    -6.52277    -6.13492     0.14446     0.32595     0.14747
  external pressure =       -6.43 kB  Pullay stress =        0.00 kB


 VOLUME and BASIS-vectors are now :
 -----------------------------------------------------------------------------
  energy-cutoff  :      400.00
  volume of cell :    27000.00
      direct lattice vectors                 reciprocal lattice vectors
    30.000000000  0.000000000  0.000000000     0.033333333  0.000000000  0.000000000
     0.000000000 30.000000000  0.000000000     0.000000000  0.033333333  0.000000000
     0.000000000  0.000000000 30.000000000     0.000000000  0.000000000  0.033333333

  length of vectors
    30.000000000 30.000000000 30.000000000     0.033333333  0.033333333  0.033333333


 FORCES acting on ions
    electron-ion (+dipol)            ewald-force                    non-local-force                 convergence-correction
 -----------------------------------------------------------------------------------------------
   0.401E+03 0.100E+04 0.384E+03   -.399E+03 -.997E+03 -.384E+03   -.156E+01 -.181E+01 -.297E+00   -.915E-02 0.188E-01 -.179E-02
   -.987E+03 -.402E+03 0.404E+03   0.984E+03 0.400E+03 -.403E+03   0.183E+01 0.153E+01 -.202E+00   -.430E-02 0.104E-02 -.829E-02
   -.408E+03 0.994E+03 0.390E+03   0.406E+03 -.991E+03 -.389E+03   0.159E+01 -.185E+01 -.227E+00   -.165E-01 0.831E-02 -.558E-02
   0.990E+03 -.407E+03 0.398E+03   -.987E+03 0.405E+03 -.397E+03   -.183E+01 0.155E+01 -.206E+00   0.132E-01 -.930E-02 -.188E-01
   -.418E+02 0.716E+03 0.863E+03   0.416E+02 -.714E+03 -.860E+03   0.108E+00 -.462E+00 -.189E+01   -.162E-01 0.386E-02 0.135E-01
   -.609E+00 0.587E+03 -.970E+03   0.615E+00 -.587E+03 0.967E+03   0.947E-03 -.320E+00 0.235E+01   -.749E-02 -.208E-02 -.710E-02
   -.155E+01 0.114E+04 -.140E+02   0.154E+01 -.114E+04 0.139E+02   0.110E-01 -.310E+01 0.673E-01   -.114E-01 0.126E-01 -.144E-01
   0.114E+04 -.252E+01 -.115E+02   -.114E+04 0.251E+01 0.114E+02   -.310E+01 0.788E-02 0.447E-01   0.808E-02 -.962E-02 -.188E-01
   -.114E+04 -.182E+01 -.816E+01   0.114E+04 0.181E+01 0.813E+01   0.311E+01 0.744E-02 0.193E-01   0.318E-02 -.605E-02 0.139E-03
   -.804E+00 -.114E+04 -.705E+01   0.803E+00 0.114E+04 0.706E+01   0.447E-02 0.311E+01 0.844E-02   -.753E-02 -.249E-02 -.167E-01
   -.626E+03 0.601E+03 0.790E+03   0.624E+03 -.599E+03 -.787E+03   0.153E+01 -.155E+01 -.225E+01   -.149E-01 -.406E-02 -.323E-03
   -.580E+03 0.579E+03 -.817E+03   0.578E+03 -.577E+03 0.814E+03   0.156E+01 -.155E+01 0.221E+01   0.345E-02 -.495E-03 -.304E-02
   0.597E+03 -.612E+03 0.798E+03   -.595E+03 0.610E+03 -.795E+03   -.157E+01 0.157E+01 -.223E+01   0.894E-03 -.176E-01 0.425E-02
   0.579E+03 -.580E+03 -.817E+03   -.577E+03 0.578E+03 0.813E+03   -.155E+01 0.156E+01 0.221E+01   -.121E-01 -.567E-02 0.298E-02
   0.646E+03 0.628E+03 0.765E+03   -.644E+03 -.626E+03 -.762E+03   -.145E+01 -.148E+01 -.224E+01   0.703E-02 0.127E-01 0.167E-01
   0.580E+03 0.579E+03 -.818E+03   -.577E+03 -.577E+03 0.815E+03   -.156E+01 -.156E+01 0.221E+01   -.555E-02 0.211E-02 -.133E-01
   -.598E+03 -.601E+03 0.803E+03   0.595E+03 0.599E+03 -.799E+03   0.160E+01 0.159E+01 -.221E+01   -.128E-01 -.118E-02 -.613E-02
   -.580E+03 -.580E+03 -.816E+03   0.578E+03 0.578E+03 0.813E+03   0.155E+01 0.156E+01 0.221E+01   0.117E-01 -.423E-02 0.703E-02
   0.395E+03 0.975E+03 -.427E+03   -.393E+03 -.972E+03 0.426E+03   -.148E+01 -.182E+01 0.190E+00   -.122E-01 0.544E-02 -.194E-01
   -.975E+03 -.396E+03 -.423E+03   0.972E+03 0.394E+03 0.422E+03   0.184E+01 0.149E+01 0.211E+00   0.645E-02 -.956E-02 -.151E-02
   -.353E+03 0.325E+03 0.400E+03   0.353E+03 -.326E+03 -.400E+03   -.514E+00 0.364E+00 0.331E+00   -.230E-01 -.120E-01 -.995E-02
   0.998E+03 0.395E+03 0.390E+03   -.995E+03 -.393E+03 -.390E+03   -.181E+01 -.153E+01 -.278E+00   0.210E-01 0.257E-03 -.859E-02
   -.400E+03 -.987E+03 0.405E+03   0.397E+03 0.984E+03 -.405E+03   0.152E+01 0.183E+01 -.213E+00   -.887E-02 -.931E-02 -.196E-01
   -.397E+03 0.975E+03 -.426E+03   0.394E+03 -.972E+03 0.425E+03   0.148E+01 -.183E+01 0.187E+00   -.557E-02 -.165E-03 -.122E-01
   0.975E+03 -.397E+03 -.424E+03   -.972E+03 0.395E+03 0.424E+03   -.183E+01 0.148E+01 0.195E+00   -.369E-02 -.140E-01 -.113E-01
   -.992E+03 0.395E+03 0.401E+03   0.989E+03 -.392E+03 -.400E+03   0.182E+01 -.151E+01 -.247E+00   -.102E-01 -.971E-02 -.529E-02
   0.396E+03 -.989E+03 0.404E+03   -.394E+03 0.986E+03 -.403E+03   -.150E+01 0.183E+01 -.232E+00   -.125E-01 -.197E-01 -.219E-01
   0.341E+03 0.328E+03 0.376E+03   -.341E+03 -.328E+03 -.376E+03   0.552E+00 0.460E+00 0.555E-01   -.158E-01 -.105E-01 -.121E-01
   -.293E+01 0.646E+03 -.269E+02   0.294E+01 -.647E+03 0.268E+02   0.558E-02 0.708E+00 0.778E-01   -.215E-01 -.242E-02 -.221E-01
   -.639E+03 -.175E+02 0.942E+03   0.639E+03 0.176E+02 -.938E+03   0.301E+00 -.513E-01 -.245E+01   -.152E-01 -.515E-02 -.614E-02
   -.589E+03 -.102E+01 -.969E+03   0.588E+03 0.102E+01 0.965E+03   0.297E+00 0.492E-02 0.237E+01   0.407E-02 -.122E-01 0.274E-02
   0.670E+03 -.411E+02 0.913E+03   -.670E+03 0.412E+02 -.909E+03   -.516E-01 -.731E-01 -.233E+01   0.191E-02 -.173E-02 0.113E-01
   0.588E+03 -.113E+01 -.970E+03   -.587E+03 0.114E+01 0.966E+03   -.312E+00 0.123E-02 0.236E+01   -.555E-02 -.170E-01 -.114E-02
   0.769E+03 0.767E+03 -.213E+02   -.767E+03 -.765E+03 0.212E+02   -.116E+01 -.117E+01 0.705E-01   0.342E-02 0.292E-03 -.189E-01
   -.766E+03 -.768E+03 -.106E+02   0.765E+03 0.766E+03 0.107E+02   0.113E+01 0.112E+01 -.292E-01   0.717E-03 -.119E-02 -.147E-01
   -.770E+03 0.765E+03 -.164E+02   0.768E+03 -.763E+03 0.163E+02   0.115E+01 -.117E+01 0.432E-01   -.897E-02 -.554E-02 -.769E-02
   0.765E+03 -.769E+03 -.131E+02   -.763E+03 0.767E+03 0.131E+02   -.115E+01 0.114E+01 0.110E-01   -.682E-02 -.702E-02 -.292E-01
   -.110E+03 -.215E+03 0.857E+03   0.107E+03 0.210E+03 -.859E+03   0.434E+01 0.834E+01 0.544E+01   -.224E-01 -.474E-02 0.602E-02
   -.625E+00 -.123E+01 -.107E+04   0.612E+00 0.120E+01 0.107E+04   0.137E-01 0.299E-01 0.162E+01   -.691E-02 -.160E-01 0.286E-03
   0.976E+03 0.394E+03 -.426E+03   -.973E+03 -.392E+03 0.425E+03   -.183E+01 -.149E+01 0.195E+00   0.519E-02 -.144E-01 -.134E-01
   -.396E+03 -.975E+03 -.422E+03   0.393E+03 0.972E+03 0.422E+03   0.150E+01 0.184E+01 0.216E+00   0.490E-02 0.511E-02 -.730E-02
   -.324E+03 0.321E+03 -.466E+03   0.325E+03 -.321E+03 0.466E+03   -.363E+00 0.358E+00 -.536E+00   -.394E-02 -.991E-02 -.101E-01
   0.331E+03 -.351E+03 0.413E+03   -.331E+03 0.352E+03 -.413E+03   0.301E+00 -.419E+00 0.517E+00   -.187E-01 -.102E-01 -.254E-01
   0.322E+03 0.321E+03 -.467E+03   -.323E+03 -.322E+03 0.468E+03   0.354E+00 0.354E+00 -.549E+00   -.143E-01 -.146E-01 -.173E-01
   -.976E+03 0.394E+03 -.424E+03   0.973E+03 -.392E+03 0.423E+03   0.183E+01 -.150E+01 0.202E+00   0.296E-03 -.910E-02 -.196E-02
   0.394E+03 -.976E+03 -.423E+03   -.392E+03 0.973E+03 0.422E+03   -.150E+01 0.184E+01 0.207E+00   -.159E-01 0.344E-02 -.120E-01
   -.339E+03 -.344E+03 0.421E+03   0.340E+03 0.345E+03 -.422E+03   -.225E+00 -.277E+00 0.758E+00   -.184E-01 -.492E-02 -.170E-01
   0.648E+03 -.498E+01 -.231E+02   -.649E+03 0.499E+01 0.231E+02   0.697E+00 0.124E-01 0.607E-01   -.333E-02 -.207E-01 -.295E-01
   -.649E+03 -.381E+01 -.176E+02   0.650E+03 0.382E+01 0.176E+02   -.700E+00 0.653E-02 0.256E-01   -.654E-02 -.129E-01 -.781E-02
   -.665E+01 -.633E+03 0.947E+03   0.672E+01 0.632E+03 -.943E+03   -.357E-01 0.473E+00 -.249E+01   -.179E-01 -.892E-02 -.139E-02
   -.500E+00 -.589E+03 -.969E+03   0.496E+00 0.588E+03 0.965E+03   0.495E-02 0.288E+00 0.238E+01   -.409E-02 -.412E-02 0.581E-02
   -.321E+01 -.631E+01 -.294E+02   0.322E+01 0.632E+01 0.294E+02   0.157E-02 0.172E-02 0.345E-01   -.158E-01 -.183E-01 -.240E-01
   0.322E+03 -.325E+03 -.465E+03   -.322E+03 0.326E+03 0.465E+03   0.367E+00 -.371E+00 -.522E+00   -.104E-01 -.178E-01 -.152E-01
   -.324E+03 -.325E+03 -.464E+03   0.324E+03 0.325E+03 0.464E+03   -.376E+00 -.376E+00 -.502E+00   0.214E-03 -.162E-01 -.999E-02
   -.172E+01 -.649E+03 -.156E+02   0.173E+01 0.650E+03 0.156E+02   0.164E-02 -.703E+00 0.838E-02   -.136E-01 -.113E-01 -.274E-01
   0.591E+02 0.916E+02 0.299E+03   -.578E+02 -.901E+02 -.282E+03   -.129E+01 -.316E+01 -.141E+02   -.685E-02 -.409E-03 0.649E-02
   0.859E+02 0.155E+03 0.878E+03   -.927E+02 -.169E+03 -.942E+03   0.562E+01 0.117E+02 0.580E+02   -.667E-02 0.309E-03 0.976E-02
 -----------------------------------------------------------------------------------------------
   -.892E+01 -.168E+02 -.504E+02   -.213E-12 -.369E-12 -.182E-11   0.928E+01 0.171E+02 0.509E+02   -.358E+00 -.320E+00 -.468E+00
 
 
 POSITION                                       TOTAL-FORCE (eV/Angst)
 -----------------------------------------------------------------------------------
     13.37281      9.84801     12.50759         0.701454      1.071149      0.342804
     20.15199     16.62719     12.50759        -1.112093     -0.703417      0.286424
     16.62719      9.84801     12.50759        -0.693013      1.076539      0.322755
      9.84801     16.62719     12.50759         1.102372     -0.705774      0.292838
     15.00000     11.47521     10.20639        -0.146813      0.946083      1.098345
     15.00000     11.47521     19.79360        -0.000764      0.414262     -1.278134
     15.00000      8.28283     15.00000        -0.009500      1.505339     -0.029009
      8.28283     15.00000     15.00000         1.504475     -0.008956     -0.018883
     21.71717     15.00000     15.00000        -1.508738     -0.008651     -0.009116
     15.00000     21.71717     15.00000        -0.004402     -1.510288     -0.005088
     18.35858     11.64142     10.25025        -0.721090      0.725085      1.066755
     18.35858     11.64142     19.74975        -0.754303      0.750496     -1.073213
     11.64142     18.35858     10.25025         0.745618     -0.745976      1.068269
     11.64142     18.35858     19.74975         0.748722     -0.754049     -1.074091
     11.64142     11.64142     10.25025         0.691376      0.700927      1.065674
     11.64142     11.64142     19.74975         0.754665      0.753534     -1.071986
     18.35858     18.35858     10.25025        -0.758033     -0.759318      1.063410
     18.35858     18.35858     19.74975        -0.748200     -0.751438     -1.075992
     13.37281      9.84801     17.49241         0.698756      1.114474     -0.289146
     20.15199     16.62719     17.49241        -1.110026     -0.694951     -0.287449
     16.73751     13.26249     12.54279         0.189056     -0.143668     -0.089067
      9.84801     13.37281     12.50759         1.092761      0.706819      0.316807
     16.62719     20.15199     12.50759        -0.697093     -1.115670      0.290549
     16.62719      9.84801     17.49241        -0.696826      1.115460     -0.283880
      9.84801     16.62719     17.49241         1.112787     -0.695308     -0.282928
     20.15199     13.37281     12.50759        -1.104564      0.701403      0.301703
     13.37281     20.15199     12.50759         0.696317     -1.110392      0.296139
     13.26249     13.26249     12.54279        -0.181054     -0.152696     -0.040441
     15.00000     11.52498     15.00000        -0.002449     -0.226550     -0.003332
     18.52479     15.00000     10.20639        -0.353911      0.030755      1.310761
     18.52479     15.00000     19.79360        -0.406301     -0.004649     -1.280177
     11.47521     15.00000     10.20640         0.405926      0.026395      1.300207
     11.47521     15.00000     19.79360         0.412229     -0.002239     -1.278905
     11.49535     11.49535     15.00000         0.836804      0.840122     -0.015340
     18.50465     18.50465     15.00000        -0.817563     -0.814318      0.022861
     18.50465     11.49535     15.00000        -0.828087      0.835293     -0.007573
     11.49535     18.50465     15.00000         0.828317     -0.823275      0.004892
     15.00000     15.00000     10.04368         1.382422      2.970449      3.949425
     15.00000     15.00000     19.95633        -0.006545     -0.013977     -1.182708
      9.84801     13.37281     17.49241         1.113470      0.698846     -0.289878
     16.62719     20.15199     17.49241        -0.694860     -1.108390     -0.288506
     16.73751     13.26249     17.45721         0.114034     -0.110675      0.155200
     13.26249     16.73751     12.54279        -0.135565      0.177726     -0.110976
     13.26249     13.26249     17.45721        -0.113875     -0.111999      0.154910
     20.15199     13.37281     17.49241        -1.109927      0.698123     -0.288701
     13.37281     20.15199     17.49241         0.696769     -1.108370     -0.287323
     16.73751     16.73751     12.54279         0.116380      0.133180     -0.155563
     11.52498     15.00000     15.00000        -0.223229     -0.003586     -0.002223
     18.47502     15.00000     15.00000         0.220011      0.002243      0.001695
     15.00000     18.52480     10.20639         0.018119     -0.384914      1.304234
     15.00000     18.52480     19.79360        -0.003602     -0.402269     -1.280647
     15.00000     15.00000     15.00000        -0.002498     -0.002149      0.001900
     13.26249     16.73751     17.45721        -0.113017      0.113118      0.150769
     16.73751     16.73751     17.45721         0.115494      0.113893      0.146888
     15.00000     18.47502     15.00000         0.002519      0.215904      0.000353
     14.36200     13.74589      9.05852        -0.035200     -1.646490      3.387933
     14.24414     13.51421      7.96088        -1.207712     -1.813216     -6.324224
 -----------------------------------------------------------------------------------
    total drift:                               -0.002668      0.012421      0.011573


--------------------------------------------------------------------------------------------------------



  FREE ENERGIE OF THE ION-ELECTRON SYSTEM (eV)
  ---------------------------------------------------
  free  energy   TOTEN  =      -174.78353972 eV

  energy  without entropy=     -174.74881736  energy(sigma->0) =     -174.77485913
 


--------------------------------------------------------------------------------------------------------


    POTLOK:  cpu time   13.3833: real time   13.3834


--------------------------------------------------------------------------------------------------------


     LOOP+:  cpu time16554.0871: real time16554.6928
    4ORBIT:  cpu time    0.0000: real time    0.0000

 total amount of memory used by VASP MPI-rank0  5486941. kBytes
=======================================================================

   base      :      30000. kBytes
   nonlr-proj:      17126. kBytes
   fftplans  :     924480. kBytes
   grid      :    1872000. kBytes
   one-center:        886. kBytes
   wavefun   :    2642449. kBytes
 
  
  
 General timing and accounting informations for this job:
 ========================================================
  
                  Total CPU time used (sec):    16628.609
                            User time (sec):    15722.476
                          System time (sec):      906.133
                         Elapsed time (sec):    16629.254
  
                   Maximum memory used (kb):     7179080.
                   Average memory used (kb):           0.
  
                          Minor page faults:    771324382
                          Major page faults:            0
                 Voluntary context switches:          424
