<?xml version="1.0" encoding="ISO-8859-1"?>
<modeling>
 <generator>
  <i name="program" type="string">vasp </i>
  <i name="version" type="string">5.4.4.18Apr17-6-g9f103f2a35  </i>
  <i name="subversion" type="string">(build Sep 03 2018 23:53:05) complex            parallel </i>
  <i name="platform" type="string">LinuxIFC </i>
  <i name="date" type="string">2021 12 02 </i>
  <i name="time" type="string">01:12:11 </i>
 </generator>
 <incar>
  <i type="string" name="SYSTEM"> 6_Pd100_top_free_z(O)</i>
  <i type="int" name="ISTART">     0</i>
  <i type="string" name="PREC">normal   			! encut=max(enmax), ngx,y,z</i>
  <i type="string" name="ALGO"> Fast     			! Mix RMM-DIIS and Dav</i>
  <i type="logical" name="ADDGRID"> F  </i>
  <i type="int" name="ISPIN">     1</i>
  <i type="int" name="ICHARG">     2</i>
  <i type="int" name="NELM">   100</i>
  <i type="int" name="NELMIN">     6</i>
  <i type="int" name="IBRION">     2</i>
  <i name="EDIFF">      0.00010000</i>
  <i name="EDIFFG">     -0.05000000</i>
  <i type="int" name="NSW">     0</i>
  <i type="int" name="ISIF">     2</i>
  <i type="int" name="ISYM">     2</i>
  <i name="ENCUT">    400.00000000</i>
  <i type="string" name="LREAL"> Auto     			! Auto or A projection done</i>
  <i type="int" name="ISMEAR">     2</i>
  <i name="SIGMA">      0.20000000</i>
  <i type="logical" name="LWAVE"> F  </i>
  <i type="logical" name="LCHARG"> F  </i>
  <v type="int" name="KPOINT_BSE">    -1     0     0     0</v>
  <i type="int" name="MAXMEM"> 10000</i>
  <i type="int" name="NELM">   100</i>
  <i type="string" name="GGA"> RP         			! Revised PBE</i>
 </incar>
 <structure name="primitive_cell" >
  <crystal>
   <varray name="basis" >
    <v>      30.00000000       0.00000000       0.00000000 </v>
    <v>       0.00000000      30.00000000       0.00000000 </v>
    <v>       0.00000000       0.00000000      30.00000000 </v>
   </varray>
   <i name="volume">  27000.00000000 </i>
   <varray name="rec_basis" >
    <v>       0.03333333       0.00000000       0.00000000 </v>
    <v>       0.00000000       0.03333333       0.00000000 </v>
    <v>       0.00000000       0.00000000       0.03333333 </v>
   </varray>
  </crystal>
  <varray name="positions" >
   <v>       0.44576020       0.32826710       0.41691983 </v>
   <v>      -0.44576020       0.32826710       0.41691983 </v>
   <v>      -0.50000000       0.38250690       0.34021317 </v>
   <v>      -0.50000000       0.27609440      -0.50000000 </v>
   <v>       0.38804720       0.38804720       0.34167483 </v>
   <v>      -0.50000000       0.38416601      -0.50000000 </v>
   <v>       0.44208300       0.44208300       0.41809300 </v>
   <v>       0.38317830       0.38317830      -0.50000000 </v>
   <v>      -0.44208300       0.44208300       0.41809300 </v>
   <v>       0.44576020       0.32826710      -0.41691977 </v>
   <v>       0.32826705       0.44576024       0.41691983 </v>
   <v>       0.47873337       0.45819637       0.30195057 </v>
   <v>      -0.38804720       0.38804720       0.34167483 </v>
   <v>       0.47480453       0.45047350       0.26536260 </v>
   <v>      -0.38317830       0.38317830      -0.50000000 </v>
   <v>      -0.50000000      -0.50000000       0.33478917 </v>
   <v>      -0.50000000      -0.50000000      -0.50000000 </v>
   <v>      -0.44576020       0.32826710      -0.41691977 </v>
   <v>       0.38250685      -0.49999995       0.34021317 </v>
   <v>       0.44208300       0.44208300      -0.41809297 </v>
   <v>       0.38416599      -0.49999998      -0.50000000 </v>
   <v>      -0.44208300       0.44208300      -0.41809297 </v>
   <v>       0.44208298      -0.44208298       0.41809300 </v>
   <v>       0.32826705       0.44576024      -0.41691977 </v>
   <v>      -0.50000000       0.38250690      -0.34021320 </v>
   <v>       0.32826712      -0.44576022       0.41691983 </v>
   <v>      -0.38250685      -0.49999995       0.34021317 </v>
   <v>      -0.32826705       0.44576024       0.41691983 </v>
   <v>       0.27609443       0.49999998      -0.50000000 </v>
   <v>       0.38804720       0.38804720      -0.34167487 </v>
   <v>      -0.38416599      -0.49999998      -0.50000000 </v>
   <v>      -0.44208298      -0.44208298       0.41809300 </v>
   <v>       0.44208298      -0.44208298      -0.41809297 </v>
   <v>      -0.38804720       0.38804720      -0.34167487 </v>
   <v>       0.38804722      -0.38804722       0.34167483 </v>
   <v>       0.38250685      -0.49999995      -0.34021320 </v>
   <v>       0.32826712      -0.44576022      -0.41691977 </v>
   <v>      -0.32826705       0.44576024      -0.41691977 </v>
   <v>       0.50000000      -0.38250681       0.34021317 </v>
   <v>      -0.50000000      -0.38416596      -0.50000000 </v>
   <v>      -0.44208298      -0.44208298      -0.41809297 </v>
   <v>      -0.50000000      -0.50000000      -0.33478913 </v>
   <v>       0.38317828      -0.38317828      -0.50000000 </v>
   <v>      -0.32826712      -0.44576022       0.41691983 </v>
   <v>      -0.27609443       0.49999998      -0.50000000 </v>
   <v>      -0.38804722      -0.38804722       0.34167483 </v>
   <v>      -0.38250685      -0.49999995      -0.34021320 </v>
   <v>       0.44576027      -0.32826707       0.41691983 </v>
   <v>      -0.38317828      -0.38317828      -0.50000000 </v>
   <v>      -0.32826712      -0.44576022      -0.41691977 </v>
   <v>      -0.44576027      -0.32826707       0.41691983 </v>
   <v>       0.38804722      -0.38804722      -0.34167487 </v>
   <v>      -0.50000000      -0.38250681      -0.34021320 </v>
   <v>       0.44576027      -0.32826707      -0.41691977 </v>
   <v>      -0.44576027      -0.32826707      -0.41691977 </v>
   <v>      -0.50000000      -0.27609445       0.50000000 </v>
   <v>      -0.38804722      -0.38804722      -0.34167487 </v>
  </varray>
 </structure>
 <varray name="primitive_index" >
  <v type="int" >        1 </v>
  <v type="int" >        3 </v>
  <v type="int" >        5 </v>
  <v type="int" >        7 </v>
  <v type="int" >       15 </v>
  <v type="int" >       29 </v>
  <v type="int" >       28 </v>
  <v type="int" >       34 </v>
  <v type="int" >       21 </v>
  <v type="int" >       19 </v>
  <v type="int" >       22 </v>
  <v type="int" >       56 </v>
  <v type="int" >       11 </v>
  <v type="int" >       57 </v>
  <v type="int" >       36 </v>
  <v type="int" >       38 </v>
  <v type="int" >       52 </v>
  <v type="int" >       24 </v>
  <v type="int" >       32 </v>
  <v type="int" >       44 </v>
  <v type="int" >       48 </v>
  <v type="int" >       42 </v>
  <v type="int" >       43 </v>
  <v type="int" >       40 </v>
  <v type="int" >        6 </v>
  <v type="int" >        4 </v>
  <v type="int" >       30 </v>
  <v type="int" >       26 </v>
  <v type="int" >        8 </v>
  <v type="int" >       16 </v>
  <v type="int" >       49 </v>
  <v type="int" >       47 </v>
  <v type="int" >       53 </v>
  <v type="int" >       12 </v>
  <v type="int" >       13 </v>
  <v type="int" >       33 </v>
  <v type="int" >       25 </v>
  <v type="int" >       45 </v>
  <v type="int" >       50 </v>
  <v type="int" >       55 </v>
  <v type="int" >       54 </v>
  <v type="int" >       39 </v>
  <v type="int" >       37 </v>
  <v type="int" >        2 </v>
  <v type="int" >        9 </v>
  <v type="int" >       17 </v>
  <v type="int" >       31 </v>
  <v type="int" >       27 </v>
  <v type="int" >       35 </v>
  <v type="int" >       20 </v>
  <v type="int" >       23 </v>
  <v type="int" >       14 </v>
  <v type="int" >       51 </v>
  <v type="int" >       46 </v>
  <v type="int" >       41 </v>
  <v type="int" >       10 </v>
  <v type="int" >       18 </v>
 </varray>
 <kpoints>
  <generation param="Monkhorst-Pack">
   <v type="int" name="divisions">       1        1        1 </v>
   <v name="usershift">      0.00000000       0.00000000       0.00000000 </v>
   <v name="genvec1">      1.00000000       0.00000000       0.00000000 </v>
   <v name="genvec2">      0.00000000       1.00000000       0.00000000 </v>
   <v name="genvec3">      0.00000000       0.00000000       1.00000000 </v>
   <v name="shift">      0.00000000       0.00000000       0.00000000 </v>
  </generation>
  <varray name="kpointlist" >
   <v>       0.00000000       0.00000000       0.00000000 </v>
  </varray>
  <varray name="weights" >
   <v>       1.00000000 </v>
  </varray>
 </kpoints>
 <parameters>
  <separator name="general" >
   <i type="string" name="SYSTEM">6_Pd100_top_free_z(O)</i>
   <i type="logical" name="LCOMPAT"> F  </i>
  </separator>
  <separator name="electronic" >
   <i type="string" name="PREC">normal</i>
   <i name="ENMAX">    400.00000000</i>
   <i name="ENAUG">    644.87300000</i>
   <i name="EDIFF">      0.00010000</i>
   <i type="int" name="IALGO">    68</i>
   <i type="int" name="IWAVPR">    10</i>
   <i type="int" name="NBANDS">   336</i>
   <i name="NELECT">    560.00000000</i>
   <i type="int" name="TURBO">     0</i>
   <i type="int" name="IRESTART">     0</i>
   <i type="int" name="NREBOOT">     0</i>
   <i type="int" name="NMIN">     0</i>
   <i name="EREF">      0.00000000</i>
   <separator name="electronic smearing" >
    <i type="int" name="ISMEAR">     2</i>
    <i name="SIGMA">      0.20000000</i>
    <i name="KSPACING">      0.50000000</i>
    <i type="logical" name="KGAMMA"> T  </i>
   </separator>
   <separator name="electronic projectors" >
    <i type="logical" name="LREAL"> T  </i>
    <v name="ROPT">     -0.00050000     -0.00050000     -0.00050000</v>
    <i type="int" name="LMAXPAW">  -100</i>
    <i type="int" name="LMAXMIX">     2</i>
    <i type="logical" name="NLSPLINE"> F  </i>
   </separator>
   <separator name="electronic startup" >
    <i type="int" name="ISTART">     0</i>
    <i type="int" name="ICHARG">     2</i>
    <i type="int" name="INIWAV">     1</i>
   </separator>
   <separator name="electronic spin" >
    <i type="int" name="ISPIN">     1</i>
    <i type="logical" name="LNONCOLLINEAR"> F  </i>
    <v name="MAGMOM">      1.00000000      1.00000000      1.00000000      1.00000000      1.00000000      1.00000000      1.00000000      1.00000000      1.00000000      1.00000000      1.00000000      1.00000000      1.00000000      1.00000000      1.00000000      1.00000000      1.00000000      1.00000000      1.00000000      1.00000000
      1.00000000      1.00000000      1.00000000      1.00000000      1.00000000      1.00000000      1.00000000      1.00000000      1.00000000      1.00000000      1.00000000      1.00000000      1.00000000      1.00000000      1.00000000      1.00000000      1.00000000      1.00000000      1.00000000      1.00000000
      1.00000000      1.00000000      1.00000000      1.00000000      1.00000000      1.00000000      1.00000000      1.00000000      1.00000000      1.00000000      1.00000000      1.00000000      1.00000000      1.00000000      1.00000000      1.00000000      1.00000000</v>
    <i name="NUPDOWN">     -1.00000000</i>
    <i type="logical" name="LSORBIT"> F  </i>
    <v name="SAXIS">      0.00000000      0.00000000      1.00000000</v>
    <i type="logical" name="LSPIRAL"> F  </i>
    <v name="QSPIRAL">      0.00000000      0.00000000      0.00000000</v>
    <i type="logical" name="LZEROZ"> F  </i>
   </separator>
   <separator name="electronic exchange-correlation" >
    <i type="logical" name="LASPH"> F  </i>
    <i type="logical" name="LMETAGGA"> F  </i>
   </separator>
   <separator name="electronic convergence" >
    <i type="int" name="NELM">   100</i>
    <i type="int" name="NELMDL">    -5</i>
    <i type="int" name="NELMIN">     6</i>
    <i name="ENINI">    400.00000000</i>
    <separator name="electronic convergence detail" >
     <i type="logical" name="LDIAG"> T  </i>
     <i type="logical" name="LSUBROT"> F  </i>
     <i name="WEIMIN">      0.00000000</i>
     <i name="EBREAK">      0.00000007</i>
     <i name="DEPER">      0.30000000</i>
     <i type="int" name="NRMM">     4</i>
     <i name="TIME">      0.40000000</i>
    </separator>
   </separator>
   <separator name="electronic mixer" >
    <i name="AMIX">      0.40000000</i>
    <i name="BMIX">      1.00000000</i>
    <i name="AMIN">      0.10000000</i>
    <i name="AMIX_MAG">      1.60000000</i>
    <i name="BMIX_MAG">      1.00000000</i>
    <separator name="electronic mixer details" >
     <i type="int" name="IMIX">     4</i>
     <i type="logical" name="MIXFIRST"> F  </i>
     <i type="int" name="MAXMIX">   -45</i>
     <i name="WC">    100.00000000</i>
     <i type="int" name="INIMIX">     1</i>
     <i type="int" name="MIXPRE">     1</i>
     <i type="int" name="MREMOVE">     5</i>
    </separator>
   </separator>
   <separator name="electronic dipolcorrection" >
    <i type="logical" name="LDIPOL"> F  </i>
    <i type="logical" name="LMONO"> F  </i>
    <i type="int" name="IDIPOL">     0</i>
    <i name="EPSILON">      1.00000000</i>
    <v name="DIPOL">   -100.00000000   -100.00000000   -100.00000000</v>
    <i name="EFIELD">      0.00000000</i>
   </separator>
  </separator>
  <separator name="grids" >
   <i type="int" name="NGX">   150</i>
   <i type="int" name="NGY">   150</i>
   <i type="int" name="NGZ">   150</i>
   <i type="int" name="NGXF">   300</i>
   <i type="int" name="NGYF">   300</i>
   <i type="int" name="NGZF">   300</i>
   <i type="logical" name="ADDGRID"> F  </i>
  </separator>
  <separator name="ionic" >
   <i type="int" name="NSW">     0</i>
   <i type="int" name="IBRION">    -1</i>
   <i type="int" name="MDALGO">     0</i>
   <i type="int" name="ISIF">     2</i>
   <i name="PSTRESS">      0.00000000</i>
   <i name="EDIFFG">     -0.05000000</i>
   <i type="int" name="NFREE">     1</i>
   <i name="POTIM">      0.50000000</i>
   <i name="SMASS">     -3.00000000</i>
   <i name="SCALEE">      1.00000000</i>
  </separator>
  <separator name="ionic md" >
   <i name="TEBEG">      0.00010000</i>
   <i name="TEEND">      0.00010000</i>
   <i type="int" name="NBLOCK">     1</i>
   <i type="int" name="KBLOCK">     1</i>
   <i type="int" name="NPACO">   256</i>
   <i name="APACO">     16.00000000</i>
  </separator>
  <separator name="symmetry" >
   <i type="int" name="ISYM">     2</i>
   <i name="SYMPREC">      0.00001000</i>
  </separator>
  <separator name="dos" >
   <i type="int" name="LORBIT">     0</i>
   <v name="RWIGS">     -1.00000000     -1.00000000     -1.00000000</v>
   <i type="int" name="NEDOS">   301</i>
   <i name="EMIN">     10.00000000</i>
   <i name="EMAX">    -10.00000000</i>
   <i name="EFERMI">      0.00000000</i>
  </separator>
  <separator name="writing" >
   <i type="int" name="NWRITE">     2</i>
   <i type="logical" name="LWAVE"> F  </i>
   <i type="logical" name="LDOWNSAMPLE"> F  </i>
   <i type="logical" name="LCHARG"> F  </i>
   <i type="logical" name="LPARD"> F  </i>
   <i type="logical" name="LVTOT"> F  </i>
   <i type="logical" name="LVHAR"> F  </i>
   <i type="logical" name="LELF"> F  </i>
   <i type="logical" name="LOPTICS"> F  </i>
   <v name="STM">      0.00000000      0.00000000      0.00000000      0.00000000      0.00000000      0.00000000      0.00000000</v>
  </separator>
  <separator name="performance" >
   <i type="int" name="NPAR">     1</i>
   <i type="int" name="NSIM">     4</i>
   <i type="int" name="NBLK">    -1</i>
   <i type="logical" name="LPLANE"> T  </i>
   <i type="logical" name="LSCALAPACK"> T  </i>
   <i type="logical" name="LSCAAWARE"> F  </i>
   <i type="logical" name="LSCALU"> F  </i>
   <i type="logical" name="LASYNC"> F  </i>
   <i type="logical" name="LORBITALREAL"> F  </i>
  </separator>
  <separator name="miscellaneous" >
   <i type="int" name="IDIOT">     3</i>
   <i type="int" name="ISPECIAL">     0</i>
   <i type="logical" name="LMUSIC"> F  </i>
   <v name="POMASS">    106.42000000     12.01100000     16.00000000</v>
   <v name="DARWINR">      0.00000000      0.00000000      0.00000000</v>
   <v name="DARWINV">      1.00000000      1.00000000      1.00000000</v>
   <i type="logical" name="LCORR"> T  </i>
  </separator>
  <i type="logical" name="GGA_COMPAT"> T  </i>
  <i type="logical" name="LBERRY"> F  </i>
  <i type="int" name="ICORELEVEL">     0</i>
  <i type="logical" name="LDAU"> F  </i>
  <i type="int" name="I_CONSTRAINED_M">     0</i>
  <separator name="electronic exchange-correlation" >
   <i type="string" name="GGA">RP</i>
   <i type="int" name="VOSKOWN">     0</i>
   <i type="logical" name="LHFCALC"> F  </i>
   <i type="string" name="PRECFOCK"></i>
   <i type="logical" name="LSYMGRAD"> F  </i>
   <i type="logical" name="LHFONE"> F  </i>
   <i type="logical" name="LRHFCALC"> F  </i>
   <i type="logical" name="LTHOMAS"> F  </i>
   <i type="logical" name="LMODELHF"> F  </i>
   <i name="ENCUT4O">     -1.00000000</i>
   <i type="int" name="EXXOEP">     0</i>
   <i type="int" name="FOURORBIT">     0</i>
   <i name="AEXX">      0.00000000</i>
   <i name="HFALPHA">      0.00000000</i>
   <i name="MCALPHA">      0.00000000</i>
   <i name="ALDAX">      1.00000000</i>
   <i name="AGGAX">      1.00000000</i>
   <i name="ALDAC">      1.00000000</i>
   <i name="AGGAC">      1.00000000</i>
   <i type="int" name="NKREDX">     1</i>
   <i type="int" name="NKREDY">     1</i>
   <i type="int" name="NKREDZ">     1</i>
   <i type="logical" name="SHIFTRED"> F  </i>
   <i type="logical" name="ODDONLY"> F  </i>
   <i type="logical" name="EVENONLY"> F  </i>
   <i type="int" name="LMAXFOCK">     0</i>
   <i type="int" name="NMAXFOCKAE">     0</i>
   <i type="logical" name="LFOCKAEDFT"> F  </i>
   <i name="HFSCREEN">      0.00000000</i>
   <i name="HFSCREENC">      0.00000000</i>
   <i type="int" name="NBANDSGWLOW">     0</i>
  </separator>
  <separator name="vdW DFT" >
   <i type="logical" name="LUSE_VDW"> F  </i>
   <i name="Zab_VDW">     -0.84910000</i>
   <i name="PARAM1">      0.12340000</i>
   <i name="PARAM2">      1.00000000</i>
   <i name="PARAM3">      0.00000000</i>
  </separator>
  <separator name="model GW" >
   <i type="int" name="MODEL_GW">     0</i>
   <i name="MODEL_EPS0">    284.21052632</i>
   <i name="MODEL_ALPHA">      1.00000000</i>
  </separator>
  <separator name="linear response parameters" >
   <i type="logical" name="LEPSILON"> F  </i>
   <i type="logical" name="LRPA"> F  </i>
   <i type="logical" name="LNABLA"> F  </i>
   <i type="logical" name="LVEL"> F  </i>
   <i type="int" name="KINTER">     0</i>
   <i name="CSHIFT">      0.10000000</i>
   <i name="OMEGAMAX">     -1.00000000</i>
   <i name="DEG_THRESHOLD">      0.00200000</i>
   <i name="RTIME">     -0.10000000</i>
   <i name="WPLASMAI">      0.00000000</i>
   <v name="DFIELD">      0.00000000      0.00000000      0.00000000</v>
   <v name="WPLASMA">      0.00000000      0.00000000      0.00000000      0.00000000      0.00000000      0.00000000      0.00000000      0.00000000      0.00000000</v>
  </separator>
  <separator name="orbital magnetization" >
   <i type="logical" name="NUCIND"> F  </i>
   <v name="MAGPOS">      0.00000000      0.00000000      0.00000000</v>
   <i type="logical" name="LNICSALL"> T  </i>
   <i type="logical" name="ORBITALMAG"> F  </i>
   <i type="logical" name="LMAGBLOCH"> F  </i>
   <i type="logical" name="LCHIMAG"> F  </i>
   <i type="logical" name="LGAUGE"> T  </i>
   <i type="int" name="MAGATOM">     0</i>
   <v name="MAGDIPOL">      0.00000000      0.00000000      0.00000000</v>
   <v name="AVECCONST">      0.00000000      0.00000000      0.00000000</v>
  </separator>
  <separator name="response functions" >
   <i type="logical" name="LADDER"> F  </i>
   <i type="logical" name="LRPAFORCE"> F  </i>
   <i type="logical" name="LFXC"> F  </i>
   <i type="logical" name="LHARTREE"> T  </i>
   <i type="int" name="IBSE">     0</i>
   <v type="int" name="KPOINT">    -1     0     0     0</v>
   <i type="logical" name="LTCTE"> F  </i>
   <i type="logical" name="LTETE"> F  </i>
   <i type="logical" name="LTRIPLET"> F  </i>
   <i type="logical" name="LFXCEPS"> F  </i>
   <i type="logical" name="LFXHEG"> F  </i>
   <i type="int" name="NATURALO">     2</i>
   <i type="logical" name="L2ORDER"> F  </i>
   <i type="logical" name="LMP2LT"> F  </i>
   <i type="logical" name="LUSEW"> F  </i>
   <i name="ENCUTGW">     -2.00000000</i>
   <i name="ENCUTGWSOFT">     -2.00000000</i>
   <i name="ENCUTLF">     -1.00000000</i>
   <i type="int" name="LMAXMP2">    -1</i>
   <i name="SCISSOR">      0.00000000</i>
   <i type="int" name="NOMEGA">     0</i>
   <i type="int" name="NOMEGAR">     0</i>
   <i type="int" name="NBANDSGW">    -1</i>
   <i type="int" name="NBANDSO">    -1</i>
   <i type="int" name="NBANDSV">    -1</i>
   <i type="int" name="NELM">   100</i>
   <i type="int" name="NELMHF">     1</i>
   <i type="int" name="DIM">     3</i>
   <i type="int" name="ANTIRES">     0</i>
   <i name="OMEGAMAX">    -30.00000000</i>
   <i name="OMEGAMIN">    -30.00000000</i>
   <i name="OMEGATL">   -200.00000000</i>
   <i type="int" name="OMEGAGRID">   140</i>
   <i name="CSHIFT">     -0.10000000</i>
   <i type="logical" name="SELFENERGY"> F  </i>
   <i type="logical" name="LSPECTRAL"> F  </i>
   <i type="logical" name="LSPECTRALGW"> F  </i>
   <i type="logical" name="LSINGLES"> F  </i>
   <i type="logical" name="LFERMIGW"> F  </i>
   <i type="logical" name="ODDONLYGW"> F  </i>
   <i type="logical" name="EVENONLYGW"> F  </i>
   <i type="int" name="NKREDLFX">     1</i>
   <i type="int" name="NKREDLFY">     1</i>
   <i type="int" name="NKREDLFZ">     1</i>
   <i type="int" name="MAXMEM"> 10000</i>
   <i type="int" name="TELESCOPE">     0</i>
   <i type="int" name="TAUPAR">     1</i>
   <i type="int" name="OMEGAPAR">    -1</i>
   <i name="LAMBDA">      1.00000000</i>
  </separator>
  <separator name="External order field" >
   <i name="OFIELD_KAPPA">      0.00000000</i>
   <v name="OFIELD_K">      0.00000000      0.00000000      0.00000000</v>
   <i name="OFIELD_Q6_NEAR">      0.00000000</i>
   <i name="OFIELD_Q6_FAR">      0.00000000</i>
   <i name="OFIELD_A">      0.00000000</i>
  </separator>
 </parameters>
 <atominfo>
  <atoms>      57 </atoms>
  <types>       3 </types>
  <array name="atoms" >
   <dimension dim="1">ion</dimension>
   <field type="string">element</field>
   <field type="int">atomtype</field>
   <set>
    <rc><c>Pd</c><c>   1</c></rc>
    <rc><c>Pd</c><c>   1</c></rc>
    <rc><c>Pd</c><c>   1</c></rc>
    <rc><c>Pd</c><c>   1</c></rc>
    <rc><c>Pd</c><c>   1</c></rc>
    <rc><c>Pd</c><c>   1</c></rc>
    <rc><c>Pd</c><c>   1</c></rc>
    <rc><c>Pd</c><c>   1</c></rc>
    <rc><c>Pd</c><c>   1</c></rc>
    <rc><c>Pd</c><c>   1</c></rc>
    <rc><c>Pd</c><c>   1</c></rc>
    <rc><c>Pd</c><c>   1</c></rc>
    <rc><c>Pd</c><c>   1</c></rc>
    <rc><c>Pd</c><c>   1</c></rc>
    <rc><c>Pd</c><c>   1</c></rc>
    <rc><c>Pd</c><c>   1</c></rc>
    <rc><c>Pd</c><c>   1</c></rc>
    <rc><c>Pd</c><c>   1</c></rc>
    <rc><c>Pd</c><c>   1</c></rc>
    <rc><c>Pd</c><c>   1</c></rc>
    <rc><c>Pd</c><c>   1</c></rc>
    <rc><c>Pd</c><c>   1</c></rc>
    <rc><c>Pd</c><c>   1</c></rc>
    <rc><c>Pd</c><c>   1</c></rc>
    <rc><c>Pd</c><c>   1</c></rc>
    <rc><c>Pd</c><c>   1</c></rc>
    <rc><c>Pd</c><c>   1</c></rc>
    <rc><c>Pd</c><c>   1</c></rc>
    <rc><c>Pd</c><c>   1</c></rc>
    <rc><c>Pd</c><c>   1</c></rc>
    <rc><c>Pd</c><c>   1</c></rc>
    <rc><c>Pd</c><c>   1</c></rc>
    <rc><c>Pd</c><c>   1</c></rc>
    <rc><c>Pd</c><c>   1</c></rc>
    <rc><c>Pd</c><c>   1</c></rc>
    <rc><c>Pd</c><c>   1</c></rc>
    <rc><c>Pd</c><c>   1</c></rc>
    <rc><c>Pd</c><c>   1</c></rc>
    <rc><c>Pd</c><c>   1</c></rc>
    <rc><c>Pd</c><c>   1</c></rc>
    <rc><c>Pd</c><c>   1</c></rc>
    <rc><c>Pd</c><c>   1</c></rc>
    <rc><c>Pd</c><c>   1</c></rc>
    <rc><c>Pd</c><c>   1</c></rc>
    <rc><c>Pd</c><c>   1</c></rc>
    <rc><c>Pd</c><c>   1</c></rc>
    <rc><c>Pd</c><c>   1</c></rc>
    <rc><c>Pd</c><c>   1</c></rc>
    <rc><c>Pd</c><c>   1</c></rc>
    <rc><c>Pd</c><c>   1</c></rc>
    <rc><c>Pd</c><c>   1</c></rc>
    <rc><c>Pd</c><c>   1</c></rc>
    <rc><c>Pd</c><c>   1</c></rc>
    <rc><c>Pd</c><c>   1</c></rc>
    <rc><c>Pd</c><c>   1</c></rc>
    <rc><c>C </c><c>   2</c></rc>
    <rc><c>O </c><c>   3</c></rc>
   </set>
  </array>
  <array name="atomtypes" >
   <dimension dim="1">type</dimension>
   <field type="int">atomspertype</field>
   <field type="string">element</field>
   <field>mass</field>
   <field>valence</field>
   <field type="string">pseudopotential</field>
   <set>
    <rc><c>  55</c><c>Pd</c><c>    106.42000000</c><c>     10.00000000</c><c>  PAW_PBE Pd 04Jan2005                  </c></rc>
    <rc><c>   1</c><c>C </c><c>     12.01100000</c><c>      4.00000000</c><c>  PAW_PBE C 08Apr2002                   </c></rc>
    <rc><c>   1</c><c>O </c><c>     16.00000000</c><c>      6.00000000</c><c>  PAW_PBE O 08Apr2002                   </c></rc>
   </set>
  </array>
 </atominfo>
 <structure name="initialpos" >
  <crystal>
   <varray name="basis" >
    <v>      30.00000000       0.00000000       0.00000000 </v>
    <v>       0.00000000      30.00000000       0.00000000 </v>
    <v>       0.00000000       0.00000000      30.00000000 </v>
   </varray>
   <i name="volume">  27000.00000000 </i>
   <varray name="rec_basis" >
    <v>       0.03333333       0.00000000       0.00000000 </v>
    <v>       0.00000000       0.03333333       0.00000000 </v>
    <v>       0.00000000       0.00000000       0.03333333 </v>
   </varray>
  </crystal>
  <varray name="positions" >
   <v>       0.44576020       0.32826710       0.41691983 </v>
   <v>       0.67173288       0.55423978       0.41691983 </v>
   <v>       0.55423980       0.32826710       0.41691983 </v>
   <v>       0.32826712       0.55423978       0.41691983 </v>
   <v>       0.50000000       0.38250690       0.34021317 </v>
   <v>       0.50000000       0.38250690       0.65978680 </v>
   <v>       0.50000000       0.27609440       0.50000000 </v>
   <v>       0.27609443       0.49999998       0.50000000 </v>
   <v>       0.72390557       0.49999998       0.50000000 </v>
   <v>       0.50000000       0.72390555       0.50000000 </v>
   <v>       0.61195280       0.38804720       0.34167483 </v>
   <v>       0.61195280       0.38804720       0.65832513 </v>
   <v>       0.38804722       0.61195278       0.34167483 </v>
   <v>       0.38804722       0.61195278       0.65832513 </v>
   <v>       0.38804720       0.38804720       0.34167483 </v>
   <v>       0.38804720       0.38804720       0.65832513 </v>
   <v>       0.61195278       0.61195278       0.34167483 </v>
   <v>       0.61195278       0.61195278       0.65832513 </v>
   <v>       0.44576020       0.32826710       0.58308023 </v>
   <v>       0.67173288       0.55423978       0.58308023 </v>
   <v>       0.55791699       0.44208301       0.41809300 </v>
   <v>       0.32826705       0.44576024       0.41691983 </v>
   <v>       0.55423973       0.67173293       0.41691983 </v>
   <v>       0.55423980       0.32826710       0.58308023 </v>
   <v>       0.32826712       0.55423978       0.58308023 </v>
   <v>       0.67173295       0.44576024       0.41691983 </v>
   <v>       0.44576027       0.67173293       0.41691983 </v>
   <v>       0.44208301       0.44208301       0.41809300 </v>
   <v>       0.50000000       0.38416601       0.50000000 </v>
   <v>       0.61749315       0.50000005       0.34021317 </v>
   <v>       0.61749315       0.50000005       0.65978680 </v>
   <v>       0.38250685       0.50000005       0.34021317 </v>
   <v>       0.38250685       0.50000005       0.65978680 </v>
   <v>       0.38317830       0.38317830       0.50000000 </v>
   <v>       0.61682172       0.61682172       0.50000000 </v>
   <v>       0.61682170       0.38317830       0.50000000 </v>
   <v>       0.38317828       0.61682172       0.50000000 </v>
   <v>       0.50000000       0.50000000       0.33478917 </v>
   <v>       0.50000000       0.50000000       0.66521087 </v>
   <v>       0.32826705       0.44576024       0.58308023 </v>
   <v>       0.55423973       0.67173293       0.58308023 </v>
   <v>       0.55791699       0.44208301       0.58190703 </v>
   <v>       0.44208298       0.55791702       0.41809300 </v>
   <v>       0.44208301       0.44208301       0.58190703 </v>
   <v>       0.67173295       0.44576024       0.58308023 </v>
   <v>       0.44576027       0.67173293       0.58308023 </v>
   <v>       0.55791702       0.55791702       0.41809300 </v>
   <v>       0.38416599       0.50000002       0.50000000 </v>
   <v>       0.61583401       0.50000002       0.50000000 </v>
   <v>       0.50000000       0.61749319       0.34021317 </v>
   <v>       0.50000000       0.61749319       0.65978680 </v>
   <v>       0.50000000       0.50000000       0.50000000 </v>
   <v>       0.44208298       0.55791702       0.58190703 </v>
   <v>       0.55791702       0.55791702       0.58190703 </v>
   <v>       0.50000000       0.61583404       0.50000000 </v>
   <v>       0.47873337       0.45819637       0.30195057 </v>
   <v>       0.47480453       0.45047350       0.26536260 </v>
  </varray>
  <varray name="selective"  type="logical" >
   <v type="logical" >  F  F  F </v>
   <v type="logical" >  F  F  F </v>
   <v type="logical" >  F  F  F </v>
   <v type="logical" >  F  F  F </v>
   <v type="logical" >  F  F  F </v>
   <v type="logical" >  F  F  F </v>
   <v type="logical" >  F  F  F </v>
   <v type="logical" >  F  F  F </v>
   <v type="logical" >  F  F  F </v>
   <v type="logical" >  F  F  F </v>
   <v type="logical" >  F  F  F </v>
   <v type="logical" >  F  F  F </v>
   <v type="logical" >  F  F  F </v>
   <v type="logical" >  F  F  F </v>
   <v type="logical" >  F  F  F </v>
   <v type="logical" >  F  F  F </v>
   <v type="logical" >  F  F  F </v>
   <v type="logical" >  F  F  F </v>
   <v type="logical" >  F  F  F </v>
   <v type="logical" >  F  F  F </v>
   <v type="logical" >  F  F  F </v>
   <v type="logical" >  F  F  F </v>
   <v type="logical" >  F  F  F </v>
   <v type="logical" >  F  F  F </v>
   <v type="logical" >  F  F  F </v>
   <v type="logical" >  F  F  F </v>
   <v type="logical" >  F  F  F </v>
   <v type="logical" >  F  F  F </v>
   <v type="logical" >  F  F  F </v>
   <v type="logical" >  F  F  F </v>
   <v type="logical" >  F  F  F </v>
   <v type="logical" >  F  F  F </v>
   <v type="logical" >  F  F  F </v>
   <v type="logical" >  F  F  F </v>
   <v type="logical" >  F  F  F </v>
   <v type="logical" >  F  F  F </v>
   <v type="logical" >  F  F  F </v>
   <v type="logical" >  F  F  F </v>
   <v type="logical" >  F  F  F </v>
   <v type="logical" >  F  F  F </v>
   <v type="logical" >  F  F  F </v>
   <v type="logical" >  F  F  F </v>
   <v type="logical" >  F  F  F </v>
   <v type="logical" >  F  F  F </v>
   <v type="logical" >  F  F  F </v>
   <v type="logical" >  F  F  F </v>
   <v type="logical" >  F  F  F </v>
   <v type="logical" >  F  F  F </v>
   <v type="logical" >  F  F  F </v>
   <v type="logical" >  F  F  F </v>
   <v type="logical" >  F  F  F </v>
   <v type="logical" >  F  F  F </v>
   <v type="logical" >  F  F  F </v>
   <v type="logical" >  F  F  F </v>
   <v type="logical" >  F  F  F </v>
   <v type="logical" >  F  F  F </v>
   <v type="logical" >  F  F  F </v>
  </varray>
  <nose>
   <v>      -3.00000000       0.00000000       0.00010000       0.00010000 </v>
  </nose>
 </structure>
 <calculation>
  <scstep>
   <time name="dav">  350.79  350.88</time>
   <time name="total">  365.20  365.29</time>
   <energy>
    <i name="alphaZ">     75.25431677 </i>
    <i name="ewald"> 139523.28450374 </i>
    <i name="hartreedc">-182875.01366561 </i>
    <i name="XCdc">  -1702.20438276 </i>
    <i name="pawpsdc">  44873.02882129 </i>
    <i name="pawaedc"> -41398.84523641 </i>
    <i name="eentropy">      0.02367479 </i>
    <i name="bandstr">    817.48149166 </i>
    <i name="atom">  45086.50549395 </i>
    <i name="e_fr_energy">   4399.51501742 </i>
    <i name="e_wo_entrp">   4399.49134263 </i>
    <i name="e_0_energy">   4399.50909872 </i>
   </energy>
  </scstep>
  <scstep>
   <time name="dav">  564.11  564.13</time>
   <time name="total">  564.11  564.13</time>
   <energy>
    <i name="e_fr_energy">   2013.89341614 </i>
    <i name="e_wo_entrp">   2013.91765775 </i>
    <i name="e_0_energy">   2013.89947654 </i>
   </energy>
  </scstep>
  <scstep>
   <time name="dav">  475.06  475.10</time>
   <time name="total">  475.06  475.10</time>
   <energy>
    <i name="e_fr_energy">    228.64527102 </i>
    <i name="e_wo_entrp">    228.69498632 </i>
    <i name="e_0_energy">    228.65769985 </i>
   </energy>
  </scstep>
  <scstep>
   <time name="dav">  409.21  409.24</time>
   <time name="total">  409.21  409.25</time>
   <energy>
    <i name="e_fr_energy">   -136.84691140 </i>
    <i name="e_wo_entrp">   -136.84938106 </i>
    <i name="e_0_energy">   -136.84752881 </i>
   </energy>
  </scstep>
  <scstep>
   <time name="dav">  494.64  494.69</time>
   <time name="total">  520.11  520.16</time>
   <energy>
    <i name="e_fr_energy">   -180.49141705 </i>
    <i name="e_wo_entrp">   -181.01027575 </i>
    <i name="e_0_energy">   -180.62113173 </i>
   </energy>
  </scstep>
  <scstep>
   <time name="diag">   66.14   66.14</time>
   <time name="diis">  181.49  181.50</time>
   <time name="orth">   13.21   13.21</time>
   <time name="total">  299.14  299.17</time>
   <energy>
    <i name="e_fr_energy">   -180.62393814 </i>
    <i name="e_wo_entrp">   -180.36189527 </i>
    <i name="e_0_energy">   -180.55842742 </i>
   </energy>
  </scstep>
  <scstep>
   <time name="diag">   67.73   67.74</time>
   <time name="diis">  218.26  218.28</time>
   <time name="orth">   13.33   13.34</time>
   <time name="total">  337.77  337.80</time>
   <energy>
    <i name="e_fr_energy">   -185.51225344 </i>
    <i name="e_wo_entrp">   -185.39345043 </i>
    <i name="e_0_energy">   -185.48255269 </i>
   </energy>
  </scstep>
  <scstep>
   <time name="diag">   67.67   67.68</time>
   <time name="diis">  197.98  198.00</time>
   <time name="orth">   13.28   13.28</time>
   <time name="total">  317.83  317.86</time>
   <energy>
    <i name="e_fr_energy">   -186.50566763 </i>
    <i name="e_wo_entrp">   -186.35266677 </i>
    <i name="e_0_energy">   -186.46741741 </i>
   </energy>
  </scstep>
  <scstep>
   <time name="diag">   67.39   67.39</time>
   <time name="diis">  186.82  186.82</time>
   <time name="orth">   13.22   13.22</time>
   <time name="total">  305.88  305.89</time>
   <energy>
    <i name="e_fr_energy">   -183.64285085 </i>
    <i name="e_wo_entrp">   -183.61585804 </i>
    <i name="e_0_energy">   -183.63610265 </i>
   </energy>
  </scstep>
  <scstep>
   <time name="diag">   67.29   67.29</time>
   <time name="diis">  184.70  184.70</time>
   <time name="orth">   13.51   13.51</time>
   <time name="total">  304.08  304.08</time>
   <energy>
    <i name="e_fr_energy">   -180.63395571 </i>
    <i name="e_wo_entrp">   -180.52512353 </i>
    <i name="e_0_energy">   -180.60674766 </i>
   </energy>
  </scstep>
  <scstep>
   <time name="diag">   66.47   66.47</time>
   <time name="diis">  183.34  183.35</time>
   <time name="orth">   13.71   13.71</time>
   <time name="total">  302.41  302.41</time>
   <energy>
    <i name="e_fr_energy">   -178.66798115 </i>
    <i name="e_wo_entrp">   -178.59376224 </i>
    <i name="e_0_energy">   -178.64942643 </i>
   </energy>
  </scstep>
  <scstep>
   <time name="diag">   66.83   66.83</time>
   <time name="diis">  175.93  175.94</time>
   <time name="orth">   13.02   13.02</time>
   <time name="total">  294.16  294.17</time>
   <energy>
    <i name="e_fr_energy">   -177.89618573 </i>
    <i name="e_wo_entrp">   -177.81927418 </i>
    <i name="e_0_energy">   -177.87695784 </i>
   </energy>
  </scstep>
  <scstep>
   <time name="diag">   65.10   65.10</time>
   <time name="diis">  179.79  179.80</time>
   <time name="orth">   12.96   12.96</time>
   <time name="total">  295.31  295.31</time>
   <energy>
    <i name="e_fr_energy">   -178.39384843 </i>
    <i name="e_wo_entrp">   -178.35137056 </i>
    <i name="e_0_energy">   -178.38322896 </i>
   </energy>
  </scstep>
  <scstep>
   <time name="diag">   64.86   64.86</time>
   <time name="diis">  178.28  178.28</time>
   <time name="orth">   13.34   13.34</time>
   <time name="total">  294.77  294.77</time>
   <energy>
    <i name="e_fr_energy">   -178.21961409 </i>
    <i name="e_wo_entrp">   -178.20600477 </i>
    <i name="e_0_energy">   -178.21621176 </i>
   </energy>
  </scstep>
  <scstep>
   <time name="diag">   66.31   66.31</time>
   <time name="diis">  173.78  173.78</time>
   <time name="orth">   13.04   13.04</time>
   <time name="total">  291.66  291.66</time>
   <energy>
    <i name="e_fr_energy">   -176.34734457 </i>
    <i name="e_wo_entrp">   -176.37717076 </i>
    <i name="e_0_energy">   -176.35480112 </i>
   </energy>
  </scstep>
  <scstep>
   <time name="diag">   65.85   65.85</time>
   <time name="diis">  179.60  179.60</time>
   <time name="orth">   13.34   13.34</time>
   <time name="total">  297.23  297.23</time>
   <energy>
    <i name="e_fr_energy">   -175.72803390 </i>
    <i name="e_wo_entrp">   -175.77552307 </i>
    <i name="e_0_energy">   -175.73990619 </i>
   </energy>
  </scstep>
  <scstep>
   <time name="diag">   65.79   65.79</time>
   <time name="diis">  181.66  181.66</time>
   <time name="orth">   13.40   13.40</time>
   <time name="total">  300.17  300.17</time>
   <energy>
    <i name="e_fr_energy">   -175.52979791 </i>
    <i name="e_wo_entrp">   -175.58275229 </i>
    <i name="e_0_energy">   -175.54303650 </i>
   </energy>
  </scstep>
  <scstep>
   <time name="diag">   67.39   67.39</time>
   <time name="diis">  180.83  180.83</time>
   <time name="orth">   13.30   13.30</time>
   <time name="total">  300.43  300.43</time>
   <energy>
    <i name="e_fr_energy">   -175.75812949 </i>
    <i name="e_wo_entrp">   -175.89579355 </i>
    <i name="e_0_energy">   -175.79254550 </i>
   </energy>
  </scstep>
  <scstep>
   <time name="diag">   66.01   66.02</time>
   <time name="diis">  177.15  177.17</time>
   <time name="orth">   13.24   13.24</time>
   <time name="total">  294.95  294.98</time>
   <energy>
    <i name="e_fr_energy">   -175.43443432 </i>
    <i name="e_wo_entrp">   -175.46700636 </i>
    <i name="e_0_energy">   -175.44257733 </i>
   </energy>
  </scstep>
  <scstep>
   <time name="diag">   66.11   66.11</time>
   <time name="diis">  176.21  176.21</time>
   <time name="orth">   13.16   13.16</time>
   <time name="total">  294.05  294.06</time>
   <energy>
    <i name="e_fr_energy">   -175.44631150 </i>
    <i name="e_wo_entrp">   -175.52263786 </i>
    <i name="e_0_energy">   -175.46539309 </i>
   </energy>
  </scstep>
  <scstep>
   <time name="diag">   65.99   65.99</time>
   <time name="diis">  181.35  181.35</time>
   <time name="orth">   13.63   13.63</time>
   <time name="total">  300.21  300.22</time>
   <energy>
    <i name="e_fr_energy">   -175.20996168 </i>
    <i name="e_wo_entrp">   -175.24367735 </i>
    <i name="e_0_energy">   -175.21839060 </i>
   </energy>
  </scstep>
  <scstep>
   <time name="diag">   65.93   65.93</time>
   <time name="diis">  174.80  174.80</time>
   <time name="orth">   13.26   13.26</time>
   <time name="total">  292.20  292.20</time>
   <energy>
    <i name="e_fr_energy">   -175.10388845 </i>
    <i name="e_wo_entrp">   -175.09726867 </i>
    <i name="e_0_energy">   -175.10223351 </i>
   </energy>
  </scstep>
  <scstep>
   <time name="diag">   65.69   65.69</time>
   <time name="diis">  173.30  173.30</time>
   <time name="orth">   13.32   13.32</time>
   <time name="total">  291.01  291.01</time>
   <energy>
    <i name="e_fr_energy">   -175.06617533 </i>
    <i name="e_wo_entrp">   -175.00193695 </i>
    <i name="e_0_energy">   -175.05011573 </i>
   </energy>
  </scstep>
  <scstep>
   <time name="diag">   65.77   65.77</time>
   <time name="diis">  175.27  175.27</time>
   <time name="orth">   13.01   13.01</time>
   <time name="total">  292.07  292.07</time>
   <energy>
    <i name="e_fr_energy">   -175.00318549 </i>
    <i name="e_wo_entrp">   -174.96651402 </i>
    <i name="e_0_energy">   -174.99401762 </i>
   </energy>
  </scstep>
  <scstep>
   <time name="diag">   65.78   65.78</time>
   <time name="diis">  178.55  178.55</time>
   <time name="orth">   13.55   13.55</time>
   <time name="total">  296.56  296.56</time>
   <energy>
    <i name="e_fr_energy">   -174.91147632 </i>
    <i name="e_wo_entrp">   -174.88910947 </i>
    <i name="e_0_energy">   -174.90588461 </i>
   </energy>
  </scstep>
  <scstep>
   <time name="diag">   65.67   65.67</time>
   <time name="diis">  172.53  172.53</time>
   <time name="orth">   13.06   13.06</time>
   <time name="total">  289.51  289.51</time>
   <energy>
    <i name="e_fr_energy">   -174.84524219 </i>
    <i name="e_wo_entrp">   -174.81609170 </i>
    <i name="e_0_energy">   -174.83795457 </i>
   </energy>
  </scstep>
  <scstep>
   <time name="diag">   65.44   65.44</time>
   <time name="diis">  172.20  172.20</time>
   <time name="orth">   12.88   12.88</time>
   <time name="total">  289.06  289.06</time>
   <energy>
    <i name="e_fr_energy">   -174.82002997 </i>
    <i name="e_wo_entrp">   -174.77877789 </i>
    <i name="e_0_energy">   -174.80971695 </i>
   </energy>
  </scstep>
  <scstep>
   <time name="diag">   65.67   65.67</time>
   <time name="diis">  172.79  172.79</time>
   <time name="orth">   13.05   13.05</time>
   <time name="total">  289.68  289.69</time>
   <energy>
    <i name="e_fr_energy">   -174.80903868 </i>
    <i name="e_wo_entrp">   -174.78418115 </i>
    <i name="e_0_energy">   -174.80282430 </i>
   </energy>
  </scstep>
  <scstep>
   <time name="diag">   65.42   65.42</time>
   <time name="diis">  173.69  173.69</time>
   <time name="orth">   13.10   13.10</time>
   <time name="total">  291.18  291.18</time>
   <energy>
    <i name="e_fr_energy">   -174.77980803 </i>
    <i name="e_wo_entrp">   -174.74773354 </i>
    <i name="e_0_energy">   -174.77178941 </i>
   </energy>
  </scstep>
  <scstep>
   <time name="diag">   67.76   67.76</time>
   <time name="diis">  172.62  172.62</time>
   <time name="orth">   12.92   12.92</time>
   <time name="total">  292.54  292.54</time>
   <energy>
    <i name="e_fr_energy">   -174.76674751 </i>
    <i name="e_wo_entrp">   -174.72995254 </i>
    <i name="e_0_energy">   -174.75754877 </i>
   </energy>
  </scstep>
  <scstep>
   <time name="diag">   66.13   66.13</time>
   <time name="diis">  169.75  169.75</time>
   <time name="orth">   13.06   13.06</time>
   <time name="total">  288.05  288.05</time>
   <energy>
    <i name="e_fr_energy">   -174.76295865 </i>
    <i name="e_wo_entrp">   -174.72682436 </i>
    <i name="e_0_energy">   -174.75392508 </i>
   </energy>
  </scstep>
  <scstep>
   <time name="diag">   65.79   65.79</time>
   <time name="diis">  171.58  171.58</time>
   <time name="orth">   12.95   12.95</time>
   <time name="total">  288.92  288.93</time>
   <energy>
    <i name="e_fr_energy">   -174.75891250 </i>
    <i name="e_wo_entrp">   -174.72261020 </i>
    <i name="e_0_energy">   -174.74983692 </i>
   </energy>
  </scstep>
  <scstep>
   <time name="diag">   64.93   64.93</time>
   <time name="diis">  172.51  172.51</time>
   <time name="orth">   12.95   12.95</time>
   <time name="total">  288.92  288.92</time>
   <energy>
    <i name="e_fr_energy">   -174.75674032 </i>
    <i name="e_wo_entrp">   -174.72183391 </i>
    <i name="e_0_energy">   -174.74801372 </i>
   </energy>
  </scstep>
  <scstep>
   <time name="diag">   65.25   65.25</time>
   <time name="diis">  171.61  171.61</time>
   <time name="orth">   13.59   13.59</time>
   <time name="total">  290.83  290.83</time>
   <energy>
    <i name="e_fr_energy">   -174.75647130 </i>
    <i name="e_wo_entrp">   -174.71883027 </i>
    <i name="e_0_energy">   -174.74706104 </i>
   </energy>
  </scstep>
  <scstep>
   <time name="diag">   66.73   66.73</time>
   <time name="diis">  171.85  171.85</time>
   <time name="orth">   13.06   13.06</time>
   <time name="total">  291.20  291.20</time>
   <energy>
    <i name="e_fr_energy">   -174.75669446 </i>
    <i name="e_wo_entrp">   -174.71859541 </i>
    <i name="e_0_energy">   -174.74716970 </i>
   </energy>
  </scstep>
  <scstep>
   <time name="diag">   65.16   65.16</time>
   <time name="diis">  170.76  170.77</time>
   <time name="orth">   12.88   12.88</time>
   <time name="total">  287.67  287.67</time>
   <energy>
    <i name="e_fr_energy">   -174.75847105 </i>
    <i name="e_wo_entrp">   -174.72507207 </i>
    <i name="e_0_energy">   -174.75012131 </i>
   </energy>
  </scstep>
  <scstep>
   <time name="diag">   64.85   64.85</time>
   <time name="diis">  169.18  169.18</time>
   <time name="orth">   12.96   12.96</time>
   <time name="total">  286.16  286.16</time>
   <energy>
    <i name="e_fr_energy">   -174.75889524 </i>
    <i name="e_wo_entrp">   -174.72559613 </i>
    <i name="e_0_energy">   -174.75057046 </i>
   </energy>
  </scstep>
  <scstep>
   <time name="diag">   65.24   65.24</time>
   <time name="diis">  168.85  168.85</time>
   <time name="orth">   12.97   12.97</time>
   <time name="total">  286.21  286.21</time>
   <energy>
    <i name="e_fr_energy">   -174.76044975 </i>
    <i name="e_wo_entrp">   -174.72365892 </i>
    <i name="e_0_energy">   -174.75125204 </i>
   </energy>
  </scstep>
  <scstep>
   <time name="diag">   64.72   64.72</time>
   <time name="diis">  144.73  144.74</time>
   <time name="orth">   12.75   12.75</time>
   <time name="total">  261.68  261.69</time>
   <energy>
    <i name="e_fr_energy">   -174.76193363 </i>
    <i name="e_wo_entrp">   -174.72599628 </i>
    <i name="e_0_energy">   -174.75294929 </i>
   </energy>
  </scstep>
  <scstep>
   <time name="diag">   64.66   64.66</time>
   <time name="diis">  135.76  135.76</time>
   <time name="orth">   13.15   13.15</time>
   <time name="total">  254.23  254.24</time>
   <energy>
    <i name="e_fr_energy">   -174.76399583 </i>
    <i name="e_wo_entrp">   -174.72914359 </i>
    <i name="e_0_energy">   -174.75528277 </i>
   </energy>
  </scstep>
  <scstep>
   <time name="diag">   68.07   68.07</time>
   <time name="diis">  125.25  125.25</time>
   <time name="orth">   13.07   13.07</time>
   <time name="total">  246.25  246.25</time>
   <energy>
    <i name="e_fr_energy">   -174.76612485 </i>
    <i name="e_wo_entrp">   -174.73110739 </i>
    <i name="e_0_energy">   -174.75737049 </i>
   </energy>
  </scstep>
  <scstep>
   <time name="diag">   64.56   64.56</time>
   <time name="diis">  127.56  127.56</time>
   <time name="orth">   13.05   13.05</time>
   <time name="total">  244.63  244.63</time>
   <energy>
    <i name="e_fr_energy">   -174.76859634 </i>
    <i name="e_wo_entrp">   -174.73353832 </i>
    <i name="e_0_energy">   -174.75983183 </i>
   </energy>
  </scstep>
  <scstep>
   <time name="diag">   64.13   64.13</time>
   <time name="diis">  147.35  147.35</time>
   <time name="orth">   13.11   13.11</time>
   <time name="total">  264.98  264.98</time>
   <energy>
    <i name="e_fr_energy">   -174.77242760 </i>
    <i name="e_wo_entrp">   -174.73801015 </i>
    <i name="e_0_energy">   -174.76382324 </i>
   </energy>
  </scstep>
  <scstep>
   <time name="diag">   65.43   65.43</time>
   <time name="diis">  115.84  115.85</time>
   <time name="orth">   12.92   12.92</time>
   <time name="total">  234.27  234.28</time>
   <energy>
    <i name="e_fr_energy">   -174.77411525 </i>
    <i name="e_wo_entrp">   -174.74013552 </i>
    <i name="e_0_energy">   -174.76562032 </i>
   </energy>
  </scstep>
  <scstep>
   <time name="diag">   64.01   64.01</time>
   <time name="diis">  123.43  123.43</time>
   <time name="orth">   12.94   12.94</time>
   <time name="total">  240.78  240.78</time>
   <energy>
    <i name="e_fr_energy">   -174.77653958 </i>
    <i name="e_wo_entrp">   -174.74164632 </i>
    <i name="e_0_energy">   -174.76781627 </i>
   </energy>
  </scstep>
  <scstep>
   <time name="diag">   65.05   65.05</time>
   <time name="diis">  112.28  112.28</time>
   <time name="orth">   12.93   12.93</time>
   <time name="total">  230.69  230.69</time>
   <energy>
    <i name="e_fr_energy">   -174.77777345 </i>
    <i name="e_wo_entrp">   -174.74284137 </i>
    <i name="e_0_energy">   -174.76904043 </i>
   </energy>
  </scstep>
  <scstep>
   <time name="diag">   65.69   65.69</time>
   <time name="diis">  110.92  110.93</time>
   <time name="orth">   12.89   12.89</time>
   <time name="total">  229.89  229.90</time>
   <energy>
    <i name="e_fr_energy">   -174.77857624 </i>
    <i name="e_wo_entrp">   -174.74380727 </i>
    <i name="e_0_energy">   -174.76988399 </i>
   </energy>
  </scstep>
  <scstep>
   <time name="diag">   64.64   64.64</time>
   <time name="diis">  110.78  110.78</time>
   <time name="orth">   13.15   13.15</time>
   <time name="total">  229.69  229.70</time>
   <energy>
    <i name="e_fr_energy">   -174.77964545 </i>
    <i name="e_wo_entrp">   -174.74511856 </i>
    <i name="e_0_energy">   -174.77101373 </i>
   </energy>
  </scstep>
  <scstep>
   <time name="diag">   66.11   66.11</time>
   <time name="diis">  108.22  108.22</time>
   <time name="orth">   12.93   12.93</time>
   <time name="total">  228.29  228.29</time>
   <energy>
    <i name="e_fr_energy">   -174.78031238 </i>
    <i name="e_wo_entrp">   -174.74570739 </i>
    <i name="e_0_energy">   -174.77166114 </i>
   </energy>
  </scstep>
  <scstep>
   <time name="diag">   64.70   64.70</time>
   <time name="diis">  106.39  106.40</time>
   <time name="orth">   12.95   12.95</time>
   <time name="total">  224.67  224.67</time>
   <energy>
    <i name="e_fr_energy">   -174.78140361 </i>
    <i name="e_wo_entrp">   -174.74672452 </i>
    <i name="e_0_energy">   -174.77273384 </i>
   </energy>
  </scstep>
  <scstep>
   <time name="diag">   65.87   65.87</time>
   <time name="diis">  107.87  107.87</time>
   <time name="orth">   12.88   12.88</time>
   <time name="total">  227.20  227.21</time>
   <energy>
    <i name="e_fr_energy">   -174.78174860 </i>
    <i name="e_wo_entrp">   -174.74705049 </i>
    <i name="e_0_energy">   -174.77307407 </i>
   </energy>
  </scstep>
  <scstep>
   <time name="diag">   64.78   64.78</time>
   <time name="diis">  103.63  103.63</time>
   <time name="orth">   12.99   12.99</time>
   <time name="total">  222.12  222.12</time>
   <energy>
    <i name="e_fr_energy">   -174.78230701 </i>
    <i name="e_wo_entrp">   -174.74760161 </i>
    <i name="e_0_energy">   -174.77363066 </i>
   </energy>
  </scstep>
  <scstep>
   <time name="diag">   64.75   64.75</time>
   <time name="diis">   91.79   91.79</time>
   <time name="orth">   12.65   12.65</time>
   <time name="total">  209.95  209.95</time>
   <energy>
    <i name="e_fr_energy">   -174.78267919 </i>
    <i name="e_wo_entrp">   -174.74808722 </i>
    <i name="e_0_energy">   -174.77403120 </i>
   </energy>
  </scstep>
  <scstep>
   <time name="diag">   64.71   64.71</time>
   <time name="diis">   77.04   77.05</time>
   <time name="orth">   12.90   12.90</time>
   <time name="total">  195.43  195.43</time>
   <energy>
    <i name="e_fr_energy">   -174.78293070 </i>
    <i name="e_wo_entrp">   -174.74835420 </i>
    <i name="e_0_energy">   -174.77428658 </i>
   </energy>
  </scstep>
  <scstep>
   <time name="diag">   65.38   65.43</time>
   <time name="diis">   97.53   97.53</time>
   <time name="orth">   13.18   13.18</time>
   <time name="total">  217.28  217.33</time>
   <energy>
    <i name="e_fr_energy">   -174.78345963 </i>
    <i name="e_wo_entrp">   -174.74890645 </i>
    <i name="e_0_energy">   -174.77482133 </i>
   </energy>
  </scstep>
  <scstep>
   <time name="diag">   65.26   65.26</time>
   <time name="diis">   71.37   71.37</time>
   <time name="orth">   12.91   12.91</time>
   <time name="total">  162.95  162.95</time>
   <energy>
    <i name="alphaZ">     75.25431677 </i>
    <i name="ewald"> 139523.28450374 </i>
    <i name="hartreedc">-183876.24469043 </i>
    <i name="XCdc">  -1691.38038722 </i>
    <i name="pawpsdc">  46324.14713416 </i>
    <i name="pawaedc"> -42795.60486060 </i>
    <i name="eentropy">     -0.03472236 </i>
    <i name="bandstr">  -2820.71032773 </i>
    <i name="atom">  45086.50549395 </i>
    <i name="e_fr_energy">   -174.78353972 </i>
    <i name="e_wo_entrp">   -174.74881736 </i>
    <i name="e_0_energy">   -174.77485913 </i>
   </energy>
  </scstep>
  <structure>
   <crystal>
    <varray name="basis" >
     <v>      30.00000000       0.00000000       0.00000000 </v>
     <v>       0.00000000      30.00000000       0.00000000 </v>
     <v>       0.00000000       0.00000000      30.00000000 </v>
    </varray>
    <i name="volume">  27000.00000000 </i>
    <varray name="rec_basis" >
     <v>       0.03333333       0.00000000       0.00000000 </v>
     <v>       0.00000000       0.03333333       0.00000000 </v>
     <v>       0.00000000       0.00000000       0.03333333 </v>
    </varray>
   </crystal>
   <varray name="positions" >
    <v>       0.44576020       0.32826710       0.41691983 </v>
    <v>       0.67173288       0.55423978       0.41691983 </v>
    <v>       0.55423980       0.32826710       0.41691983 </v>
    <v>       0.32826712       0.55423978       0.41691983 </v>
    <v>       0.50000000       0.38250690       0.34021317 </v>
    <v>       0.50000000       0.38250690       0.65978680 </v>
    <v>       0.50000000       0.27609440       0.50000000 </v>
    <v>       0.27609443       0.49999998       0.50000000 </v>
    <v>       0.72390557       0.49999998       0.50000000 </v>
    <v>       0.50000000       0.72390555       0.50000000 </v>
    <v>       0.61195280       0.38804720       0.34167483 </v>
    <v>       0.61195280       0.38804720       0.65832513 </v>
    <v>       0.38804722       0.61195278       0.34167483 </v>
    <v>       0.38804722       0.61195278       0.65832513 </v>
    <v>       0.38804720       0.38804720       0.34167483 </v>
    <v>       0.38804720       0.38804720       0.65832513 </v>
    <v>       0.61195278       0.61195278       0.34167483 </v>
    <v>       0.61195278       0.61195278       0.65832513 </v>
    <v>       0.44576020       0.32826710       0.58308023 </v>
    <v>       0.67173288       0.55423978       0.58308023 </v>
    <v>       0.55791699       0.44208301       0.41809300 </v>
    <v>       0.32826705       0.44576024       0.41691983 </v>
    <v>       0.55423973       0.67173293       0.41691983 </v>
    <v>       0.55423980       0.32826710       0.58308023 </v>
    <v>       0.32826712       0.55423978       0.58308023 </v>
    <v>       0.67173295       0.44576024       0.41691983 </v>
    <v>       0.44576027       0.67173293       0.41691983 </v>
    <v>       0.44208301       0.44208301       0.41809300 </v>
    <v>       0.50000000       0.38416601       0.50000000 </v>
    <v>       0.61749315       0.50000005       0.34021317 </v>
    <v>       0.61749315       0.50000005       0.65978680 </v>
    <v>       0.38250685       0.50000005       0.34021317 </v>
    <v>       0.38250685       0.50000005       0.65978680 </v>
    <v>       0.38317830       0.38317830       0.50000000 </v>
    <v>       0.61682172       0.61682172       0.50000000 </v>
    <v>       0.61682170       0.38317830       0.50000000 </v>
    <v>       0.38317828       0.61682172       0.50000000 </v>
    <v>       0.50000000       0.50000000       0.33478917 </v>
    <v>       0.50000000       0.50000000       0.66521087 </v>
    <v>       0.32826705       0.44576024       0.58308023 </v>
    <v>       0.55423973       0.67173293       0.58308023 </v>
    <v>       0.55791699       0.44208301       0.58190703 </v>
    <v>       0.44208298       0.55791702       0.41809300 </v>
    <v>       0.44208301       0.44208301       0.58190703 </v>
    <v>       0.67173295       0.44576024       0.58308023 </v>
    <v>       0.44576027       0.67173293       0.58308023 </v>
    <v>       0.55791702       0.55791702       0.41809300 </v>
    <v>       0.38416599       0.50000002       0.50000000 </v>
    <v>       0.61583401       0.50000002       0.50000000 </v>
    <v>       0.50000000       0.61749319       0.34021317 </v>
    <v>       0.50000000       0.61749319       0.65978680 </v>
    <v>       0.50000000       0.50000000       0.50000000 </v>
    <v>       0.44208298       0.55791702       0.58190703 </v>
    <v>       0.55791702       0.55791702       0.58190703 </v>
    <v>       0.50000000       0.61583404       0.50000000 </v>
    <v>       0.47873337       0.45819637       0.30195057 </v>
    <v>       0.47480453       0.45047350       0.26536260 </v>
   </varray>
  </structure>
  <varray name="forces" >
   <v>       0.70145423       1.07114910       0.34280413 </v>
   <v>      -1.11209288      -0.70341738       0.28642436 </v>
   <v>      -0.69301341       1.07653864       0.32275471 </v>
   <v>       1.10237221      -0.70577395       0.29283778 </v>
   <v>      -0.14681282       0.94608337       1.09834533 </v>
   <v>      -0.00076407       0.41426227      -1.27813390 </v>
   <v>      -0.00950025       1.50533856      -0.02900909 </v>
   <v>       1.50447479      -0.00895592      -0.01888310 </v>
   <v>      -1.50873834      -0.00865093      -0.00911599 </v>
   <v>      -0.00440239      -1.51028770      -0.00508814 </v>
   <v>      -0.72108951       0.72508494       1.06675480 </v>
   <v>      -0.75430288       0.75049626      -1.07321334 </v>
   <v>       0.74561751      -0.74597568       1.06826921 </v>
   <v>       0.74872237      -0.75404936      -1.07409062 </v>
   <v>       0.69137622       0.70092731       1.06567428 </v>
   <v>       0.75466510       0.75353362      -1.07198637 </v>
   <v>      -0.75803347      -0.75931753       1.06341032 </v>
   <v>      -0.74819970      -0.75143817      -1.07599231 </v>
   <v>       0.69875600       1.11447413      -0.28914584 </v>
   <v>      -1.11002560      -0.69495126      -0.28744946 </v>
   <v>       0.18905555      -0.14366796      -0.08906696 </v>
   <v>       1.09276052       0.70681903       0.31680745 </v>
   <v>      -0.69709335      -1.11567000       0.29054917 </v>
   <v>      -0.69682644       1.11546010      -0.28388025 </v>
   <v>       1.11278684      -0.69530831      -0.28292772 </v>
   <v>      -1.10456387       0.70140322       0.30170254 </v>
   <v>       0.69631710      -1.11039173       0.29613930 </v>
   <v>      -0.18105427      -0.15269627      -0.04044054 </v>
   <v>      -0.00244898      -0.22655041      -0.00333172 </v>
   <v>      -0.35391079       0.03075509       1.31076124 </v>
   <v>      -0.40630109      -0.00464895      -1.28017661 </v>
   <v>       0.40592624       0.02639510       1.30020656 </v>
   <v>       0.41222901      -0.00223939      -1.27890505 </v>
   <v>       0.83680385       0.84012215      -0.01534033 </v>
   <v>      -0.81756259      -0.81431799       0.02286123 </v>
   <v>      -0.82808676       0.83529272      -0.00757276 </v>
   <v>       0.82831671      -0.82327472       0.00489209 </v>
   <v>       1.38242188       2.97044870       3.94942483 </v>
   <v>      -0.00654491      -0.01397708      -1.18270822 </v>
   <v>       1.11347023       0.69884626      -0.28987754 </v>
   <v>      -0.69486019      -1.10839034      -0.28850628 </v>
   <v>       0.11403435      -0.11067458       0.15520043 </v>
   <v>      -0.13556489       0.17772629      -0.11097632 </v>
   <v>      -0.11387520      -0.11199851       0.15490969 </v>
   <v>      -1.10992744       0.69812268      -0.28870070 </v>
   <v>       0.69676906      -1.10836986      -0.28732344 </v>
   <v>       0.11637974       0.13317951      -0.15556284 </v>
   <v>      -0.22322896      -0.00358587      -0.00222331 </v>
   <v>       0.22001112       0.00224258       0.00169467 </v>
   <v>       0.01811890      -0.38491365       1.30423385 </v>
   <v>      -0.00360186      -0.40226885      -1.28064741 </v>
   <v>      -0.00249773      -0.00214860       0.00189985 </v>
   <v>      -0.11301670       0.11311838       0.15076903 </v>
   <v>       0.11549415       0.11389253       0.14688778 </v>
   <v>       0.00251898       0.21590432       0.00035273 </v>
   <v>      -0.03519953      -1.64648951       3.38793310 </v>
   <v>      -1.20771181      -1.81321641      -6.32422431 </v>
  </varray>
  <varray name="stress" >
   <v>      -6.63260745       0.14446035       0.14746817 </v>
   <v>       0.14446031      -6.52276653       0.32594819 </v>
   <v>       0.14746821       0.32594817      -6.13492084 </v>
  </varray>
  <energy>
   <i name="e_fr_energy">   -174.78353972 </i>
   <i name="e_wo_entrp">   -174.77485913 </i>
   <i name="e_0_energy">     -0.03472236 </i>
  </energy>
  <time name="totalsc">16554.0916554.69</time>
  <eigenvalues>
   <array>
    <dimension dim="1">band</dimension>
    <dimension dim="2">kpoint</dimension>
    <dimension dim="3">spin</dimension>
    <field>eigene</field>
    <field>occ</field>
    <set>
     <set comment="spin 1">
      <set comment="kpoint 1">
       <r>  -28.1144    1.0000 </r>
       <r>  -13.5504    1.0000 </r>
       <r>  -11.3194    1.0000 </r>
       <r>  -10.9037    1.0000 </r>
       <r>  -10.6253    1.0000 </r>
       <r>   -6.7514    1.0000 </r>
       <r>   -6.7059    1.0000 </r>
       <r>   -6.6270    1.0000 </r>
       <r>   -6.1966    1.0000 </r>
       <r>   -6.1370    1.0000 </r>
       <r>   -6.1350    1.0000 </r>
       <r>   -5.8953    1.0000 </r>
       <r>   -5.8767    1.0000 </r>
       <r>   -5.8534    1.0000 </r>
       <r>   -5.8094    1.0000 </r>
       <r>   -5.7722    1.0000 </r>
       <r>   -5.7640    1.0000 </r>
       <r>   -5.7345    1.0000 </r>
       <r>   -5.6917    1.0000 </r>
       <r>   -5.6863    1.0000 </r>
       <r>   -5.6835    1.0000 </r>
       <r>   -5.6820    1.0000 </r>
       <r>   -5.6107    1.0000 </r>
       <r>   -5.6000    1.0000 </r>
       <r>   -5.5979    1.0000 </r>
       <r>   -5.5960    1.0000 </r>
       <r>   -5.5954    1.0000 </r>
       <r>   -5.5758    1.0000 </r>
       <r>   -5.5471    1.0000 </r>
       <r>   -5.5370    1.0000 </r>
       <r>   -5.5333    1.0000 </r>
       <r>   -5.5290    1.0000 </r>
       <r>   -5.5219    1.0000 </r>
       <r>   -5.5197    1.0000 </r>
       <r>   -5.5174    1.0000 </r>
       <r>   -5.5123    1.0000 </r>
       <r>   -5.5072    1.0000 </r>
       <r>   -5.5015    1.0000 </r>
       <r>   -5.4983    1.0000 </r>
       <r>   -5.4906    1.0000 </r>
       <r>   -5.4789    1.0000 </r>
       <r>   -5.4739    1.0000 </r>
       <r>   -5.4717    1.0000 </r>
       <r>   -5.4685    1.0000 </r>
       <r>   -5.4659    1.0000 </r>
       <r>   -5.4617    1.0000 </r>
       <r>   -5.4545    1.0000 </r>
       <r>   -5.4434    1.0000 </r>
       <r>   -5.4303    1.0000 </r>
       <r>   -5.4281    1.0000 </r>
       <r>   -5.4245    1.0000 </r>
       <r>   -5.4128    1.0000 </r>
       <r>   -5.4053    1.0000 </r>
       <r>   -5.4028    1.0000 </r>
       <r>   -5.3985    1.0000 </r>
       <r>   -5.3946    1.0000 </r>
       <r>   -5.3871    1.0000 </r>
       <r>   -5.3764    1.0000 </r>
       <r>   -5.3697    1.0000 </r>
       <r>   -5.3374    1.0000 </r>
       <r>   -5.3254    1.0000 </r>
       <r>   -5.3216    1.0000 </r>
       <r>   -5.3151    1.0000 </r>
       <r>   -5.3145    1.0000 </r>
       <r>   -5.3113    1.0000 </r>
       <r>   -5.3084    1.0000 </r>
       <r>   -5.3045    1.0000 </r>
       <r>   -5.3019    1.0000 </r>
       <r>   -5.2927    1.0000 </r>
       <r>   -5.2818    1.0000 </r>
       <r>   -5.2587    1.0000 </r>
       <r>   -5.2195    1.0000 </r>
       <r>   -5.1906    1.0000 </r>
       <r>   -5.1867    1.0000 </r>
       <r>   -5.1834    1.0000 </r>
       <r>   -5.1811    1.0000 </r>
       <r>   -5.1805    1.0000 </r>
       <r>   -5.1793    1.0000 </r>
       <r>   -5.1762    1.0000 </r>
       <r>   -5.1677    1.0000 </r>
       <r>   -5.1533    1.0000 </r>
       <r>   -5.1492    1.0000 </r>
       <r>   -5.1471    1.0000 </r>
       <r>   -5.1420    1.0000 </r>
       <r>   -5.1259    1.0000 </r>
       <r>   -5.1218    1.0000 </r>
       <r>   -5.1156    1.0000 </r>
       <r>   -5.1011    1.0000 </r>
       <r>   -5.0988    1.0000 </r>
       <r>   -5.0954    1.0000 </r>
       <r>   -5.0808    1.0000 </r>
       <r>   -5.0604    1.0000 </r>
       <r>   -5.0582    1.0000 </r>
       <r>   -5.0514    1.0000 </r>
       <r>   -5.0507    1.0000 </r>
       <r>   -5.0499    1.0000 </r>
       <r>   -5.0465    1.0000 </r>
       <r>   -5.0382    1.0000 </r>
       <r>   -5.0309    1.0000 </r>
       <r>   -5.0243    1.0000 </r>
       <r>   -5.0237    1.0000 </r>
       <r>   -5.0169    1.0000 </r>
       <r>   -5.0135    1.0000 </r>
       <r>   -5.0089    1.0000 </r>
       <r>   -5.0069    1.0000 </r>
       <r>   -5.0038    1.0000 </r>
       <r>   -5.0031    1.0000 </r>
       <r>   -4.9943    1.0000 </r>
       <r>   -4.9863    1.0000 </r>
       <r>   -4.9855    1.0000 </r>
       <r>   -4.9792    1.0000 </r>
       <r>   -4.9773    1.0000 </r>
       <r>   -4.9694    1.0000 </r>
       <r>   -4.9686    1.0000 </r>
       <r>   -4.9637    1.0000 </r>
       <r>   -4.9563    1.0000 </r>
       <r>   -4.9516    1.0000 </r>
       <r>   -4.9501    1.0000 </r>
       <r>   -4.9333    1.0000 </r>
       <r>   -4.9258    1.0000 </r>
       <r>   -4.9186    1.0000 </r>
       <r>   -4.9158    1.0000 </r>
       <r>   -4.9124    1.0000 </r>
       <r>   -4.9105    1.0000 </r>
       <r>   -4.9032    1.0000 </r>
       <r>   -4.9003    1.0000 </r>
       <r>   -4.8941    1.0000 </r>
       <r>   -4.8770    1.0000 </r>
       <r>   -4.8764    1.0000 </r>
       <r>   -4.8687    1.0000 </r>
       <r>   -4.8463    1.0000 </r>
       <r>   -4.8426    1.0000 </r>
       <r>   -4.8362    1.0000 </r>
       <r>   -4.8320    1.0000 </r>
       <r>   -4.8318    1.0000 </r>
       <r>   -4.8291    1.0000 </r>
       <r>   -4.8200    1.0000 </r>
       <r>   -4.8097    0.9999 </r>
       <r>   -4.8037    0.9999 </r>
       <r>   -4.7943    0.9999 </r>
       <r>   -4.7892    0.9999 </r>
       <r>   -4.7724    0.9998 </r>
       <r>   -4.7584    0.9998 </r>
       <r>   -4.7532    0.9998 </r>
       <r>   -4.7362    0.9996 </r>
       <r>   -4.7357    0.9996 </r>
       <r>   -4.7346    0.9996 </r>
       <r>   -4.7315    0.9996 </r>
       <r>   -4.7234    0.9995 </r>
       <r>   -4.7086    0.9993 </r>
       <r>   -4.7052    0.9993 </r>
       <r>   -4.7037    0.9993 </r>
       <r>   -4.6876    0.9990 </r>
       <r>   -4.6828    0.9989 </r>
       <r>   -4.6788    0.9988 </r>
       <r>   -4.6782    0.9988 </r>
       <r>   -4.6722    0.9987 </r>
       <r>   -4.6709    0.9986 </r>
       <r>   -4.6685    0.9986 </r>
       <r>   -4.6633    0.9985 </r>
       <r>   -4.6599    0.9984 </r>
       <r>   -4.6534    0.9982 </r>
       <r>   -4.6518    0.9981 </r>
       <r>   -4.6497    0.9981 </r>
       <r>   -4.6479    0.9980 </r>
       <r>   -4.6439    0.9979 </r>
       <r>   -4.6413    0.9978 </r>
       <r>   -4.6354    0.9976 </r>
       <r>   -4.6323    0.9975 </r>
       <r>   -4.6308    0.9975 </r>
       <r>   -4.6266    0.9973 </r>
       <r>   -4.6221    0.9971 </r>
       <r>   -4.6127    0.9968 </r>
       <r>   -4.5956    0.9962 </r>
       <r>   -4.5944    0.9961 </r>
       <r>   -4.5937    0.9961 </r>
       <r>   -4.5899    0.9960 </r>
       <r>   -4.5873    0.9959 </r>
       <r>   -4.5845    0.9958 </r>
       <r>   -4.5733    0.9954 </r>
       <r>   -4.5664    0.9953 </r>
       <r>   -4.5647    0.9952 </r>
       <r>   -4.5548    0.9951 </r>
       <r>   -4.5536    0.9951 </r>
       <r>   -4.5511    0.9951 </r>
       <r>   -4.5500    0.9951 </r>
       <r>   -4.5492    0.9951 </r>
       <r>   -4.5472    0.9951 </r>
       <r>   -4.5459    0.9951 </r>
       <r>   -4.5439    0.9951 </r>
       <r>   -4.5153    0.9962 </r>
       <r>   -4.5140    0.9963 </r>
       <r>   -4.5094    0.9967 </r>
       <r>   -4.5044    0.9972 </r>
       <r>   -4.5026    0.9974 </r>
       <r>   -4.4972    0.9981 </r>
       <r>   -4.4890    0.9993 </r>
       <r>   -4.4813    1.0007 </r>
       <r>   -4.4792    1.0011 </r>
       <r>   -4.4730    1.0025 </r>
       <r>   -4.4686    1.0036 </r>
       <r>   -4.4668    1.0041 </r>
       <r>   -4.4643    1.0047 </r>
       <r>   -4.4625    1.0052 </r>
       <r>   -4.4592    1.0062 </r>
       <r>   -4.4557    1.0073 </r>
       <r>   -4.4533    1.0080 </r>
       <r>   -4.4459    1.0106 </r>
       <r>   -4.4426    1.0118 </r>
       <r>   -4.4371    1.0139 </r>
       <r>   -4.4281    1.0176 </r>
       <r>   -4.4193    1.0215 </r>
       <r>   -4.4133    1.0243 </r>
       <r>   -4.4089    1.0264 </r>
       <r>   -4.4072    1.0272 </r>
       <r>   -4.4051    1.0282 </r>
       <r>   -4.4013    1.0300 </r>
       <r>   -4.3985    1.0313 </r>
       <r>   -4.3960    1.0325 </r>
       <r>   -4.3938    1.0336 </r>
       <r>   -4.3928    1.0341 </r>
       <r>   -4.3873    1.0366 </r>
       <r>   -4.3611    1.0473 </r>
       <r>   -4.3512    1.0500 </r>
       <r>   -4.3499    1.0502 </r>
       <r>   -4.3432    1.0513 </r>
       <r>   -4.3368    1.0516 </r>
       <r>   -4.3345    1.0516 </r>
       <r>   -4.3324    1.0515 </r>
       <r>   -4.3317    1.0514 </r>
       <r>   -4.3276    1.0509 </r>
       <r>   -4.3262    1.0506 </r>
       <r>   -4.3253    1.0504 </r>
       <r>   -4.3234    1.0500 </r>
       <r>   -4.3214    1.0495 </r>
       <r>   -4.3173    1.0480 </r>
       <r>   -4.3172    1.0480 </r>
       <r>   -4.3124    1.0458 </r>
       <r>   -4.3118    1.0455 </r>
       <r>   -4.3071    1.0427 </r>
       <r>   -4.3013    1.0384 </r>
       <r>   -4.2986    1.0362 </r>
       <r>   -4.2965    1.0342 </r>
       <r>   -4.2955    1.0332 </r>
       <r>   -4.2902    1.0276 </r>
       <r>   -4.2879    1.0247 </r>
       <r>   -4.2823    1.0173 </r>
       <r>   -4.2811    1.0157 </r>
       <r>   -4.2785    1.0117 </r>
       <r>   -4.2780    1.0109 </r>
       <r>   -4.2651    0.9878 </r>
       <r>   -4.2603    0.9775 </r>
       <r>   -4.2575    0.9712 </r>
       <r>   -4.2523    0.9584 </r>
       <r>   -4.2499    0.9522 </r>
       <r>   -4.2474    0.9457 </r>
       <r>   -4.2474    0.9456 </r>
       <r>   -4.2460    0.9417 </r>
       <r>   -4.2406    0.9263 </r>
       <r>   -4.2402    0.9249 </r>
       <r>   -4.2365    0.9138 </r>
       <r>   -4.2344    0.9071 </r>
       <r>   -4.2319    0.8989 </r>
       <r>   -4.2316    0.8979 </r>
       <r>   -4.2301    0.8928 </r>
       <r>   -4.2184    0.8506 </r>
       <r>   -4.2178    0.8483 </r>
       <r>   -4.2150    0.8376 </r>
       <r>   -4.2138    0.8327 </r>
       <r>   -4.2128    0.8286 </r>
       <r>   -4.2108    0.8206 </r>
       <r>   -4.1964    0.7587 </r>
       <r>   -4.1942    0.7488 </r>
       <r>   -4.1913    0.7355 </r>
       <r>   -4.1862    0.7114 </r>
       <r>   -4.1804    0.6829 </r>
       <r>   -4.1770    0.6664 </r>
       <r>   -4.1674    0.6180 </r>
       <r>   -4.1663    0.6120 </r>
       <r>   -4.1653    0.6069 </r>
       <r>   -4.1643    0.6020 </r>
       <r>   -4.1511    0.5325 </r>
       <r>   -4.1499    0.5263 </r>
       <r>   -4.1287    0.4146 </r>
       <r>   -4.1271    0.4062 </r>
       <r>   -4.1226    0.3832 </r>
       <r>   -4.1162    0.3505 </r>
       <r>   -4.1053    0.2968 </r>
       <r>   -3.9902   -0.0370 </r>
       <r>   -3.9614   -0.0510 </r>
       <r>   -3.9062   -0.0384 </r>
       <r>   -3.8269   -0.0051 </r>
       <r>   -3.8187   -0.0030 </r>
       <r>   -3.7741    0.0038 </r>
       <r>   -3.4989    0.0001 </r>
       <r>   -3.4911    0.0001 </r>
       <r>   -3.2944    0.0000 </r>
       <r>   -3.0655    0.0000 </r>
       <r>   -3.0601    0.0000 </r>
       <r>   -3.0391    0.0000 </r>
       <r>   -3.0273    0.0000 </r>
       <r>   -3.0113    0.0000 </r>
       <r>   -3.0096    0.0000 </r>
       <r>   -2.9352    0.0000 </r>
       <r>   -2.8086    0.0000 </r>
       <r>   -2.5695    0.0000 </r>
       <r>   -2.5164    0.0000 </r>
       <r>   -2.4956    0.0000 </r>
       <r>   -2.2081    0.0000 </r>
       <r>   -2.1419    0.0000 </r>
       <r>   -2.1148    0.0000 </r>
       <r>   -2.0902    0.0000 </r>
       <r>   -1.9721    0.0000 </r>
       <r>   -1.9453    0.0000 </r>
       <r>   -1.9132    0.0000 </r>
       <r>   -1.8478    0.0000 </r>
       <r>   -1.8399    0.0000 </r>
       <r>   -1.7589    0.0000 </r>
       <r>   -1.7089    0.0000 </r>
       <r>   -1.6374    0.0000 </r>
       <r>   -1.6025    0.0000 </r>
       <r>   -1.5548    0.0000 </r>
       <r>   -1.4951    0.0000 </r>
       <r>   -1.4017    0.0000 </r>
       <r>   -1.2982    0.0000 </r>
       <r>   -1.0760    0.0000 </r>
       <r>   -1.0177    0.0000 </r>
       <r>   -0.9993    0.0000 </r>
       <r>   -0.9729    0.0000 </r>
       <r>   -0.9435    0.0000 </r>
       <r>   -0.9355    0.0000 </r>
       <r>   -0.9305    0.0000 </r>
       <r>   -0.8934    0.0000 </r>
       <r>   -0.8676    0.0000 </r>
       <r>   -0.8167    0.0000 </r>
       <r>   -0.7228    0.0000 </r>
      </set>
     </set>
    </set>
   </array>
  </eigenvalues>
  <separator name="orbital magnetization" >
   <v name="MAGDIPOLOUT">      0.00000000      0.00000000      0.00000000</v>
  </separator>
  <dos>
   <i name="efermi">     -4.14491957 </i>
   <total>
    <array>
     <dimension dim="1">gridpoints</dimension>
     <dimension dim="2">spin</dimension>
     <field>energy</field>
     <field>total</field>
     <field>integrated</field>
     <set>
      <set comment="spin 1">
       <r>   -30.1144     0.0000     0.0000 </r>
       <r>   -30.0097     0.0000     0.0000 </r>
       <r>   -29.9051     0.0000     0.0000 </r>
       <r>   -29.8005     0.0000     0.0000 </r>
       <r>   -29.6958     0.0000     0.0000 </r>
       <r>   -29.5912     0.0000     0.0000 </r>
       <r>   -29.4865     0.0000     0.0000 </r>
       <r>   -29.3819     0.0000     0.0000 </r>
       <r>   -29.2773     0.0000     0.0000 </r>
       <r>   -29.1726     0.0000     0.0000 </r>
       <r>   -29.0680     0.0000     0.0000 </r>
       <r>   -28.9633     0.0000     0.0000 </r>
       <r>   -28.8587     0.0001     0.0000 </r>
       <r>   -28.7541     0.0020     0.0002 </r>
       <r>   -28.6494     0.0199     0.0023 </r>
       <r>   -28.5448     0.0643     0.0090 </r>
       <r>   -28.4402    -0.1451    -0.0061 </r>
       <r>   -28.3355    -0.8136    -0.0913 </r>
       <r>   -28.2309     1.2557     0.0401 </r>
       <r>   -28.1262     7.9768     0.8748 </r>
       <r>   -28.0216     9.1743     1.8348 </r>
       <r>   -27.9170     2.5606     2.1027 </r>
       <r>   -27.8123    -0.7868     2.0204 </r>
       <r>   -27.7077    -0.2891     1.9901 </r>
       <r>   -27.6030     0.0610     1.9965 </r>
       <r>   -27.4984     0.0293     1.9996 </r>
       <r>   -27.3938     0.0037     2.0000 </r>
       <r>   -27.2891     0.0002     2.0000 </r>
       <r>   -27.1845     0.0000     2.0000 </r>
       <r>   -27.0799     0.0000     2.0000 </r>
       <r>   -26.9752     0.0000     2.0000 </r>
       <r>   -26.8706     0.0000     2.0000 </r>
       <r>   -26.7659     0.0000     2.0000 </r>
       <r>   -26.6613     0.0000     2.0000 </r>
       <r>   -26.5567     0.0000     2.0000 </r>
       <r>   -26.4520     0.0000     2.0000 </r>
       <r>   -26.3474     0.0000     2.0000 </r>
       <r>   -26.2427     0.0000     2.0000 </r>
       <r>   -26.1381     0.0000     2.0000 </r>
       <r>   -26.0335     0.0000     2.0000 </r>
       <r>   -25.9288     0.0000     2.0000 </r>
       <r>   -25.8242     0.0000     2.0000 </r>
       <r>   -25.7196     0.0000     2.0000 </r>
       <r>   -25.6149     0.0000     2.0000 </r>
       <r>   -25.5103     0.0000     2.0000 </r>
       <r>   -25.4056     0.0000     2.0000 </r>
       <r>   -25.3010     0.0000     2.0000 </r>
       <r>   -25.1964     0.0000     2.0000 </r>
       <r>   -25.0917     0.0000     2.0000 </r>
       <r>   -24.9871     0.0000     2.0000 </r>
       <r>   -24.8824     0.0000     2.0000 </r>
       <r>   -24.7778     0.0000     2.0000 </r>
       <r>   -24.6732     0.0000     2.0000 </r>
       <r>   -24.5685     0.0000     2.0000 </r>
       <r>   -24.4639     0.0000     2.0000 </r>
       <r>   -24.3593     0.0000     2.0000 </r>
       <r>   -24.2546     0.0000     2.0000 </r>
       <r>   -24.1500     0.0000     2.0000 </r>
       <r>   -24.0453     0.0000     2.0000 </r>
       <r>   -23.9407     0.0000     2.0000 </r>
       <r>   -23.8361     0.0000     2.0000 </r>
       <r>   -23.7314     0.0000     2.0000 </r>
       <r>   -23.6268     0.0000     2.0000 </r>
       <r>   -23.5221     0.0000     2.0000 </r>
       <r>   -23.4175     0.0000     2.0000 </r>
       <r>   -23.3129     0.0000     2.0000 </r>
       <r>   -23.2082     0.0000     2.0000 </r>
       <r>   -23.1036     0.0000     2.0000 </r>
       <r>   -22.9990     0.0000     2.0000 </r>
       <r>   -22.8943     0.0000     2.0000 </r>
       <r>   -22.7897     0.0000     2.0000 </r>
       <r>   -22.6850     0.0000     2.0000 </r>
       <r>   -22.5804     0.0000     2.0000 </r>
       <r>   -22.4758     0.0000     2.0000 </r>
       <r>   -22.3711     0.0000     2.0000 </r>
       <r>   -22.2665     0.0000     2.0000 </r>
       <r>   -22.1618     0.0000     2.0000 </r>
       <r>   -22.0572     0.0000     2.0000 </r>
       <r>   -21.9526     0.0000     2.0000 </r>
       <r>   -21.8479     0.0000     2.0000 </r>
       <r>   -21.7433     0.0000     2.0000 </r>
       <r>   -21.6387     0.0000     2.0000 </r>
       <r>   -21.5340     0.0000     2.0000 </r>
       <r>   -21.4294     0.0000     2.0000 </r>
       <r>   -21.3247     0.0000     2.0000 </r>
       <r>   -21.2201     0.0000     2.0000 </r>
       <r>   -21.1155     0.0000     2.0000 </r>
       <r>   -21.0108     0.0000     2.0000 </r>
       <r>   -20.9062     0.0000     2.0000 </r>
       <r>   -20.8015     0.0000     2.0000 </r>
       <r>   -20.6969     0.0000     2.0000 </r>
       <r>   -20.5923     0.0000     2.0000 </r>
       <r>   -20.4876     0.0000     2.0000 </r>
       <r>   -20.3830     0.0000     2.0000 </r>
       <r>   -20.2784     0.0000     2.0000 </r>
       <r>   -20.1737     0.0000     2.0000 </r>
       <r>   -20.0691     0.0000     2.0000 </r>
       <r>   -19.9644     0.0000     2.0000 </r>
       <r>   -19.8598     0.0000     2.0000 </r>
       <r>   -19.7552     0.0000     2.0000 </r>
       <r>   -19.6505     0.0000     2.0000 </r>
       <r>   -19.5459     0.0000     2.0000 </r>
       <r>   -19.4412     0.0000     2.0000 </r>
       <r>   -19.3366     0.0000     2.0000 </r>
       <r>   -19.2320     0.0000     2.0000 </r>
       <r>   -19.1273     0.0000     2.0000 </r>
       <r>   -19.0227     0.0000     2.0000 </r>
       <r>   -18.9181     0.0000     2.0000 </r>
       <r>   -18.8134     0.0000     2.0000 </r>
       <r>   -18.7088     0.0000     2.0000 </r>
       <r>   -18.6041     0.0000     2.0000 </r>
       <r>   -18.4995     0.0000     2.0000 </r>
       <r>   -18.3949     0.0000     2.0000 </r>
       <r>   -18.2902     0.0000     2.0000 </r>
       <r>   -18.1856     0.0000     2.0000 </r>
       <r>   -18.0809     0.0000     2.0000 </r>
       <r>   -17.9763     0.0000     2.0000 </r>
       <r>   -17.8717     0.0000     2.0000 </r>
       <r>   -17.7670     0.0000     2.0000 </r>
       <r>   -17.6624     0.0000     2.0000 </r>
       <r>   -17.5578     0.0000     2.0000 </r>
       <r>   -17.4531     0.0000     2.0000 </r>
       <r>   -17.3485     0.0000     2.0000 </r>
       <r>   -17.2438     0.0000     2.0000 </r>
       <r>   -17.1392     0.0000     2.0000 </r>
       <r>   -17.0346     0.0000     2.0000 </r>
       <r>   -16.9299     0.0000     2.0000 </r>
       <r>   -16.8253     0.0000     2.0000 </r>
       <r>   -16.7206     0.0000     2.0000 </r>
       <r>   -16.6160     0.0000     2.0000 </r>
       <r>   -16.5114     0.0000     2.0000 </r>
       <r>   -16.4067     0.0000     2.0000 </r>
       <r>   -16.3021     0.0000     2.0000 </r>
       <r>   -16.1975     0.0000     2.0000 </r>
       <r>   -16.0928     0.0000     2.0000 </r>
       <r>   -15.9882     0.0000     2.0000 </r>
       <r>   -15.8835     0.0000     2.0000 </r>
       <r>   -15.7789     0.0000     2.0000 </r>
       <r>   -15.6743     0.0000     2.0000 </r>
       <r>   -15.5696     0.0000     2.0000 </r>
       <r>   -15.4650     0.0000     2.0000 </r>
       <r>   -15.3603     0.0000     2.0000 </r>
       <r>   -15.2557     0.0000     2.0000 </r>
       <r>   -15.1511     0.0000     2.0000 </r>
       <r>   -15.0464     0.0000     2.0000 </r>
       <r>   -14.9418     0.0000     2.0000 </r>
       <r>   -14.8371     0.0000     2.0000 </r>
       <r>   -14.7325     0.0000     2.0000 </r>
       <r>   -14.6279     0.0000     2.0000 </r>
       <r>   -14.5232     0.0000     2.0000 </r>
       <r>   -14.4186     0.0000     2.0000 </r>
       <r>   -14.3140     0.0001     2.0000 </r>
       <r>   -14.2093     0.0012     2.0001 </r>
       <r>   -14.1047     0.0140     2.0016 </r>
       <r>   -14.0000     0.0589     2.0078 </r>
       <r>   -13.8954    -0.0580     2.0017 </r>
       <r>   -13.7908    -0.7346     1.9248 </r>
       <r>   -13.6861     0.4316     1.9700 </r>
       <r>   -13.5815     6.7565     2.6770 </r>
       <r>   -13.4768     9.7930     3.7017 </r>
       <r>   -13.3722     3.8047     4.0998 </r>
       <r>   -13.2676    -0.6146     4.0355 </r>
       <r>   -13.1629    -0.4292     3.9906 </r>
       <r>   -13.0583     0.0451     3.9953 </r>
       <r>   -12.9537     0.0384     3.9994 </r>
       <r>   -12.8490     0.0058     4.0000 </r>
       <r>   -12.7444     0.0004     4.0000 </r>
       <r>   -12.6397     0.0000     4.0000 </r>
       <r>   -12.5351     0.0000     4.0000 </r>
       <r>   -12.4305     0.0000     4.0000 </r>
       <r>   -12.3258     0.0000     4.0000 </r>
       <r>   -12.2212     0.0000     4.0000 </r>
       <r>   -12.1165     0.0000     4.0000 </r>
       <r>   -12.0119     0.0005     4.0001 </r>
       <r>   -11.9073     0.0070     4.0008 </r>
       <r>   -11.8026     0.0429     4.0053 </r>
       <r>   -11.6980     0.0324     4.0087 </r>
       <r>   -11.5934    -0.4967     3.9567 </r>
       <r>   -11.4887    -0.4708     3.9074 </r>
       <r>   -11.3841     4.4575     4.3739 </r>
       <r>   -11.2794     9.9814     5.4183 </r>
       <r>   -11.1748     5.6469     6.0092 </r>
       <r>   -11.0702    -0.2362     5.9845 </r>
       <r>   -10.9655     3.8585     6.3882 </r>
       <r>   -10.8609     9.1996     7.3508 </r>
       <r>   -10.7562     6.6216     8.0437 </r>
       <r>   -10.6516     7.1277     8.7896 </r>
       <r>   -10.5470     9.0127     9.7326 </r>
       <r>   -10.4423     3.4629    10.0950 </r>
       <r>   -10.3377    -0.6191    10.0302 </r>
       <r>   -10.2331    -0.3816     9.9903 </r>
       <r>   -10.1284     0.0514     9.9956 </r>
       <r>   -10.0238     0.0361     9.9994 </r>
       <r>    -9.9191     0.0052    10.0000 </r>
       <r>    -9.8145     0.0003    10.0000 </r>
       <r>    -9.7099     0.0000    10.0000 </r>
       <r>    -9.6052     0.0000    10.0000 </r>
       <r>    -9.5006     0.0000    10.0000 </r>
       <r>    -9.3959     0.0000    10.0000 </r>
       <r>    -9.2913     0.0000    10.0000 </r>
       <r>    -9.1867     0.0000    10.0000 </r>
       <r>    -9.0820     0.0000    10.0000 </r>
       <r>    -8.9774     0.0000    10.0000 </r>
       <r>    -8.8728     0.0000    10.0000 </r>
       <r>    -8.7681     0.0000    10.0000 </r>
       <r>    -8.6635     0.0000    10.0000 </r>
       <r>    -8.5588     0.0000    10.0000 </r>
       <r>    -8.4542     0.0000    10.0000 </r>
       <r>    -8.3496     0.0000    10.0000 </r>
       <r>    -8.2449     0.0000    10.0000 </r>
       <r>    -8.1403     0.0000    10.0000 </r>
       <r>    -8.0356     0.0000    10.0000 </r>
       <r>    -7.9310     0.0000    10.0000 </r>
       <r>    -7.8264     0.0000    10.0000 </r>
       <r>    -7.7217     0.0000    10.0000 </r>
       <r>    -7.6171     0.0000    10.0000 </r>
       <r>    -7.5125     0.0001    10.0000 </r>
       <r>    -7.4078     0.0017    10.0002 </r>
       <r>    -7.3032     0.0211    10.0024 </r>
       <r>    -7.1985     0.1080    10.0137 </r>
       <r>    -7.0939     0.0290    10.0167 </r>
       <r>    -6.9893    -1.1763     9.8937 </r>
       <r>    -6.8846    -0.7136     9.8190 </r>
       <r>    -6.7800    10.5892    10.9270 </r>
       <r>    -6.6753    25.1562    13.5593 </r>
       <r>    -6.5707    20.6058    15.7155 </r>
       <r>    -6.4661     4.0525    16.1396 </r>
       <r>    -6.3614    -3.2982    15.7944 </r>
       <r>    -6.2568     6.5679    16.4817 </r>
       <r>    -6.1522    24.5373    19.0492 </r>
       <r>    -6.0475    22.0243    21.3538 </r>
       <r>    -5.9429    15.4207    22.9674 </r>
       <r>    -5.8382    38.1929    26.9639 </r>
       <r>    -5.7336    67.0003    33.9747 </r>
       <r>    -5.6290   113.1257    45.8120 </r>
       <r>    -5.5243   218.6704    68.6933 </r>
       <r>    -5.4197   297.9961    99.8752 </r>
       <r>    -5.3150   258.6398   126.9389 </r>
       <r>    -5.2104   204.3304   148.3197 </r>
       <r>    -5.1058   253.7932   174.8763 </r>
       <r>    -5.0011   347.4912   211.2372 </r>
       <r>    -4.8965   350.3664   247.8990 </r>
       <r>    -4.7919   291.1503   278.3646 </r>
       <r>    -4.6872   321.5606   312.0122 </r>
       <r>    -4.5826   404.1287   354.2996 </r>
       <r>    -4.4779   421.4486   398.3994 </r>
       <r>    -4.3733   453.4343   445.8461 </r>
       <r>    -4.2687   543.9834   502.7677 </r>
       <r>    -4.1640   484.6970   553.4857 </r>
       <r>    -4.0594   223.5732   576.8800 </r>
       <r>    -3.9547    38.0136   580.8577 </r>
       <r>    -3.8501    22.3393   583.1953 </r>
       <r>    -3.7455    32.5014   586.5962 </r>
       <r>    -3.6408    14.3791   588.1008 </r>
       <r>    -3.5362    10.6840   589.2187 </r>
       <r>    -3.4316    19.2693   591.2350 </r>
       <r>    -3.3269    13.6181   592.6600 </r>
       <r>    -3.2223     5.0875   593.1924 </r>
       <r>    -3.1176    21.8852   595.4824 </r>
       <r>    -3.0130    58.2843   601.5812 </r>
       <r>    -2.9084    54.8634   607.3220 </r>
       <r>    -2.8037    20.0469   609.4197 </r>
       <r>    -2.6991     3.8360   609.8211 </r>
       <r>    -2.5944    13.2395   611.2064 </r>
       <r>    -2.4898    27.3293   614.0661 </r>
       <r>    -2.3852    16.7856   615.8226 </r>
       <r>    -2.2805     4.4557   616.2888 </r>
       <r>    -2.1759    19.8497   618.3658 </r>
       <r>    -2.0713    36.8718   622.2241 </r>
       <r>    -1.9666    39.9922   626.4088 </r>
       <r>    -1.8620    43.0151   630.9098 </r>
       <r>    -1.7573    40.7877   635.1778 </r>
       <r>    -1.6527    37.2626   639.0769 </r>
       <r>    -1.5481    37.3750   642.9877 </r>
       <r>    -1.4434    31.0180   646.2334 </r>
       <r>    -1.3388    20.8300   648.4131 </r>
       <r>    -1.2341     9.3834   649.3949 </r>
       <r>    -1.1295     6.7466   650.1009 </r>
       <r>    -1.0249    37.6687   654.0425 </r>
       <r>    -0.9202    75.0849   661.8992 </r>
       <r>    -0.8156    64.9551   668.6960 </r>
       <r>    -0.7110    27.4758   671.5711 </r>
       <r>    -0.6063     5.2929   672.1249 </r>
       <r>    -0.5017    -0.7564   672.0458 </r>
       <r>    -0.3970    -0.6516   671.9776 </r>
       <r>    -0.2924     0.0787   671.9858 </r>
       <r>    -0.1878     0.1093   671.9973 </r>
       <r>    -0.0831     0.0239   671.9998 </r>
       <r>     0.0215     0.0022   672.0000 </r>
       <r>     0.1262     0.0001   672.0000 </r>
       <r>     0.2308     0.0000   672.0000 </r>
       <r>     0.3354     0.0000   672.0000 </r>
       <r>     0.4401     0.0000   672.0000 </r>
       <r>     0.5447     0.0000   672.0000 </r>
       <r>     0.6494     0.0000   672.0000 </r>
       <r>     0.7540     0.0000   672.0000 </r>
       <r>     0.8586     0.0000   672.0000 </r>
       <r>     0.9633     0.0000   672.0000 </r>
       <r>     1.0679     0.0000   672.0000 </r>
       <r>     1.1725     0.0000   672.0000 </r>
       <r>     1.2772     0.0000   672.0000 </r>
      </set>
     </set>
    </array>
   </total>
  </dos>
 </calculation>
 <structure name="finalpos" >
  <crystal>
   <varray name="basis" >
    <v>      30.00000000       0.00000000       0.00000000 </v>
    <v>       0.00000000      30.00000000       0.00000000 </v>
    <v>       0.00000000       0.00000000      30.00000000 </v>
   </varray>
   <i name="volume">  27000.00000000 </i>
   <varray name="rec_basis" >
    <v>       0.03333333       0.00000000       0.00000000 </v>
    <v>       0.00000000       0.03333333       0.00000000 </v>
    <v>       0.00000000       0.00000000       0.03333333 </v>
   </varray>
  </crystal>
  <varray name="positions" >
   <v>       0.44576020       0.32826710       0.41691983 </v>
   <v>       0.67173288       0.55423978       0.41691983 </v>
   <v>       0.55423980       0.32826710       0.41691983 </v>
   <v>       0.32826712       0.55423978       0.41691983 </v>
   <v>       0.50000000       0.38250690       0.34021317 </v>
   <v>       0.50000000       0.38250690       0.65978680 </v>
   <v>       0.50000000       0.27609440       0.50000000 </v>
   <v>       0.27609443       0.49999998       0.50000000 </v>
   <v>       0.72390557       0.49999998       0.50000000 </v>
   <v>       0.50000000       0.72390555       0.50000000 </v>
   <v>       0.61195280       0.38804720       0.34167483 </v>
   <v>       0.61195280       0.38804720       0.65832513 </v>
   <v>       0.38804722       0.61195278       0.34167483 </v>
   <v>       0.38804722       0.61195278       0.65832513 </v>
   <v>       0.38804720       0.38804720       0.34167483 </v>
   <v>       0.38804720       0.38804720       0.65832513 </v>
   <v>       0.61195278       0.61195278       0.34167483 </v>
   <v>       0.61195278       0.61195278       0.65832513 </v>
   <v>       0.44576020       0.32826710       0.58308023 </v>
   <v>       0.67173288       0.55423978       0.58308023 </v>
   <v>       0.55791699       0.44208301       0.41809300 </v>
   <v>       0.32826705       0.44576024       0.41691983 </v>
   <v>       0.55423973       0.67173293       0.41691983 </v>
   <v>       0.55423980       0.32826710       0.58308023 </v>
   <v>       0.32826712       0.55423978       0.58308023 </v>
   <v>       0.67173295       0.44576024       0.41691983 </v>
   <v>       0.44576027       0.67173293       0.41691983 </v>
   <v>       0.44208301       0.44208301       0.41809300 </v>
   <v>       0.50000000       0.38416601       0.50000000 </v>
   <v>       0.61749315       0.50000005       0.34021317 </v>
   <v>       0.61749315       0.50000005       0.65978680 </v>
   <v>       0.38250685       0.50000005       0.34021317 </v>
   <v>       0.38250685       0.50000005       0.65978680 </v>
   <v>       0.38317830       0.38317830       0.50000000 </v>
   <v>       0.61682172       0.61682172       0.50000000 </v>
   <v>       0.61682170       0.38317830       0.50000000 </v>
   <v>       0.38317828       0.61682172       0.50000000 </v>
   <v>       0.50000000       0.50000000       0.33478917 </v>
   <v>       0.50000000       0.50000000       0.66521087 </v>
   <v>       0.32826705       0.44576024       0.58308023 </v>
   <v>       0.55423973       0.67173293       0.58308023 </v>
   <v>       0.55791699       0.44208301       0.58190703 </v>
   <v>       0.44208298       0.55791702       0.41809300 </v>
   <v>       0.44208301       0.44208301       0.58190703 </v>
   <v>       0.67173295       0.44576024       0.58308023 </v>
   <v>       0.44576027       0.67173293       0.58308023 </v>
   <v>       0.55791702       0.55791702       0.41809300 </v>
   <v>       0.38416599       0.50000002       0.50000000 </v>
   <v>       0.61583401       0.50000002       0.50000000 </v>
   <v>       0.50000000       0.61749319       0.34021317 </v>
   <v>       0.50000000       0.61749319       0.65978680 </v>
   <v>       0.50000000       0.50000000       0.50000000 </v>
   <v>       0.44208298       0.55791702       0.58190703 </v>
   <v>       0.55791702       0.55791702       0.58190703 </v>
   <v>       0.50000000       0.61583404       0.50000000 </v>
   <v>       0.47873337       0.45819637       0.30195057 </v>
   <v>       0.47480453       0.45047350       0.26536260 </v>
  </varray>
  <varray name="selective"  type="logical" >
   <v type="logical" >  F  F  F </v>
   <v type="logical" >  F  F  F </v>
   <v type="logical" >  F  F  F </v>
   <v type="logical" >  F  F  F </v>
   <v type="logical" >  F  F  F </v>
   <v type="logical" >  F  F  F </v>
   <v type="logical" >  F  F  F </v>
   <v type="logical" >  F  F  F </v>
   <v type="logical" >  F  F  F </v>
   <v type="logical" >  F  F  F </v>
   <v type="logical" >  F  F  F </v>
   <v type="logical" >  F  F  F </v>
   <v type="logical" >  F  F  F </v>
   <v type="logical" >  F  F  F </v>
   <v type="logical" >  F  F  F </v>
   <v type="logical" >  F  F  F </v>
   <v type="logical" >  F  F  F </v>
   <v type="logical" >  F  F  F </v>
   <v type="logical" >  F  F  F </v>
   <v type="logical" >  F  F  F </v>
   <v type="logical" >  F  F  F </v>
   <v type="logical" >  F  F  F </v>
   <v type="logical" >  F  F  F </v>
   <v type="logical" >  F  F  F </v>
   <v type="logical" >  F  F  F </v>
   <v type="logical" >  F  F  F </v>
   <v type="logical" >  F  F  F </v>
   <v type="logical" >  F  F  F </v>
   <v type="logical" >  F  F  F </v>
   <v type="logical" >  F  F  F </v>
   <v type="logical" >  F  F  F </v>
   <v type="logical" >  F  F  F </v>
   <v type="logical" >  F  F  F </v>
   <v type="logical" >  F  F  F </v>
   <v type="logical" >  F  F  F </v>
   <v type="logical" >  F  F  F </v>
   <v type="logical" >  F  F  F </v>
   <v type="logical" >  F  F  F </v>
   <v type="logical" >  F  F  F </v>
   <v type="logical" >  F  F  F </v>
   <v type="logical" >  F  F  F </v>
   <v type="logical" >  F  F  F </v>
   <v type="logical" >  F  F  F </v>
   <v type="logical" >  F  F  F </v>
   <v type="logical" >  F  F  F </v>
   <v type="logical" >  F  F  F </v>
   <v type="logical" >  F  F  F </v>
   <v type="logical" >  F  F  F </v>
   <v type="logical" >  F  F  F </v>
   <v type="logical" >  F  F  F </v>
   <v type="logical" >  F  F  F </v>
   <v type="logical" >  F  F  F </v>
   <v type="logical" >  F  F  F </v>
   <v type="logical" >  F  F  F </v>
   <v type="logical" >  F  F  F </v>
   <v type="logical" >  F  F  F </v>
   <v type="logical" >  F  F  F </v>
  </varray>
  <nose>
   <v>      -3.00000000       0.00000000       0.00010000       0.00010000 </v>
  </nose>
 </structure>
</modeling>
