   57   57    1    1
  0.4736842E+03  0.3000000E-08  0.3000000E-08  0.3000000E-08  0.5000000E-15
  1.000000000000000E-004
  CAR 
 6_Pd100_top_free_z(O)                   
    560      1    336
 
  0.0000000E+00  0.0000000E+00  0.0000000E+00  0.1000000E+01
    1      -28.980125   1.000000
    2      -14.007550   1.000000
    3      -12.282154   1.000000
    4      -11.995865   1.000000
    5      -10.803660   1.000000
    6       -7.020592   1.000000
    7       -6.608469   1.000000
    8       -6.567919   1.000000
    9       -6.125044   1.000000
   10       -6.113753   1.000000
   11       -6.080648   1.000000
   12       -6.050545   1.000000
   13       -5.909243   1.000000
   14       -5.843026   1.000000
   15       -5.811370   1.000000
   16       -5.804440   1.000000
   17       -5.758896   1.000000
   18       -5.721391   1.000000
   19       -5.690574   1.000000
   20       -5.660341   1.000000
   21       -5.657439   1.000000
   22       -5.652972   1.000000
   23       -5.620445   1.000000
   24       -5.612530   1.000000
   25       -5.594965   1.000000
   26       -5.569936   1.000000
   27       -5.560939   1.000000
   28       -5.559292   1.000000
   29       -5.551134   1.000000
   30       -5.542720   1.000000
   31       -5.520685   1.000000
   32       -5.507760   1.000000
   33       -5.506657   1.000000
   34       -5.501208   1.000000
   35       -5.498226   1.000000
   36       -5.493586   1.000000
   37       -5.484437   1.000000
   38       -5.483192   1.000000
   39       -5.473668   1.000000
   40       -5.469132   1.000000
   41       -5.463757   1.000000
   42       -5.459340   1.000000
   43       -5.452477   1.000000
   44       -5.444527   1.000000
   45       -5.439764   1.000000
   46       -5.438699   1.000000
   47       -5.431477   1.000000
   48       -5.428045   1.000000
   49       -5.418723   1.000000
   50       -5.401166   1.000000
   51       -5.398512   1.000000
   52       -5.394704   1.000000
   53       -5.385293   1.000000
   54       -5.382556   1.000000
   55       -5.373715   1.000000
   56       -5.369892   1.000000
   57       -5.356185   1.000000
   58       -5.349214   1.000000
   59       -5.333516   1.000000
   60       -5.326263   1.000000
   61       -5.315791   1.000000
   62       -5.298848   1.000000
   63       -5.293678   1.000000
   64       -5.291613   1.000000
   65       -5.288329   1.000000
   66       -5.283490   1.000000
   67       -5.281989   1.000000
   68       -5.277269   1.000000
   69       -5.263444   1.000000
   70       -5.259116   1.000000
   71       -5.240657   1.000000
   72       -5.213707   1.000000
   73       -5.194696   1.000000
   74       -5.181530   1.000000
   75       -5.168048   1.000000
   76       -5.158928   1.000000
   77       -5.155203   1.000000
   78       -5.152572   1.000000
   79       -5.150913   1.000000
   80       -5.143886   1.000000
   81       -5.139042   1.000000
   82       -5.131085   1.000000
   83       -5.123408   1.000000
   84       -5.116857   1.000000
   85       -5.111769   1.000000
   86       -5.094825   1.000000
   87       -5.089547   1.000000
   88       -5.083289   1.000000
   89       -5.077096   1.000000
   90       -5.074411   1.000000
   91       -5.069820   1.000000
   92       -5.050062   1.000000
   93       -5.039552   1.000000
   94       -5.038430   1.000000
   95       -5.035303   1.000000
   96       -5.030806   1.000000
   97       -5.023328   1.000000
   98       -5.019563   1.000000
   99       -5.013219   1.000000
  100       -5.003065   1.000000
  101       -4.995637   1.000000
  102       -4.994842   1.000000
  103       -4.988807   1.000000
  104       -4.985099   1.000000
  105       -4.982121   1.000000
  106       -4.977714   1.000000
  107       -4.976688   1.000000
  108       -4.970199   1.000000
  109       -4.960855   1.000000
  110       -4.958970   1.000000
  111       -4.955740   1.000000
  112       -4.952550   1.000000
  113       -4.945977   1.000000
  114       -4.938121   1.000000
  115       -4.934939   1.000000
  116       -4.927620   0.999999
  117       -4.926476   0.999999
  118       -4.923726   0.999999
  119       -4.918932   0.999999
  120       -4.902388   0.999999
  121       -4.898300   0.999998
  122       -4.895094   0.999998
  123       -4.888922   0.999998
  124       -4.886686   0.999998
  125       -4.878451   0.999997
  126       -4.873569   0.999996
  127       -4.872548   0.999996
  128       -4.849201   0.999992
  129       -4.846027   0.999991
  130       -4.839676   0.999989
  131       -4.835199   0.999987
  132       -4.828777   0.999985
  133       -4.819605   0.999980
  134       -4.816236   0.999978
  135       -4.807474   0.999971
  136       -4.802183   0.999966
  137       -4.796581   0.999961
  138       -4.789042   0.999951
  139       -4.787089   0.999949
  140       -4.778712   0.999935
  141       -4.764755   0.999906
  142       -4.757671   0.999887
  143       -4.742861   0.999835
  144       -4.728194   0.999765
  145       -4.721017   0.999721
  146       -4.711392   0.999652
  147       -4.709656   0.999638
  148       -4.708869   0.999631
  149       -4.695105   0.999500
  150       -4.691937   0.999465
  151       -4.685505   0.999388
  152       -4.675706   0.999252
  153       -4.667089   0.999113
  154       -4.663155   0.999043
  155       -4.656148   0.998908
  156       -4.652116   0.998824
  157       -4.645434   0.998674
  158       -4.645151   0.998668
  159       -4.638644   0.998509
  160       -4.635375   0.998424
  161       -4.630278   0.998285
  162       -4.624917   0.998131
  163       -4.624310   0.998113
  164       -4.623035   0.998075
  165       -4.620367   0.997993
  166       -4.618453   0.997934
  167       -4.615095   0.997827
  168       -4.610189   0.997665
  169       -4.608732   0.997616
  170       -4.601282   0.997357
  171       -4.599322   0.997287
  172       -4.596986   0.997203
  173       -4.576814   0.996450
  174       -4.572580   0.996292
  175       -4.572467   0.996288
  176       -4.567176   0.996094
  177       -4.565530   0.996035
  178       -4.560948   0.995875
  179       -4.555533   0.995695
  180       -4.553071   0.995618
  181       -4.547677   0.995461
  182       -4.546717   0.995434
  183       -4.534642   0.995171
  184       -4.528416   0.995093
  185       -4.527404   0.995085
  186       -4.524247   0.995068
  187       -4.522488   0.995065
  188       -4.521255   0.995066
  189       -4.517698   0.995081
  190       -4.513729   0.995123
  191       -4.498128   0.995599
  192       -4.488413   0.996196
  193       -4.486888   0.996314
  194       -4.482756   0.996670
  195       -4.479383   0.997001
  196       -4.469181   0.998241
  197       -4.465392   0.998800
  198       -4.462315   0.999295
  199       -4.456444   1.000346
  200       -4.455141   1.000598
  201       -4.452362   1.001162
  202       -4.449576   1.001760
  203       -4.443038   1.003299
  204       -4.439154   1.004304
  205       -4.431265   1.006558
  206       -4.429258   1.007176
  207       -4.427982   1.007580
  208       -4.422096   1.009533
  209       -4.415188   1.012022
  210       -4.413935   1.012495
  211       -4.410129   1.013972
  212       -4.402709   1.017014
  213       -4.389753   1.022766
  214       -4.389090   1.023073
  215       -4.381755   1.026522
  216       -4.381368   1.026707
  217       -4.378730   1.027968
  218       -4.372776   1.030832
  219       -4.371686   1.031357
  220       -4.366136   1.034020
  221       -4.363070   1.035475
  222       -4.356547   1.038503
  223       -4.348321   1.042110
  224       -4.330374   1.048521
  225       -4.321833   1.050501
  226       -4.320617   1.050710
  227       -4.312555   1.051565
  228       -4.311990   1.051587
  229       -4.308367   1.051605
  230       -4.307521   1.051577
  231       -4.305827   1.051482
  232       -4.299722   1.050687
  233       -4.299628   1.050669
  234       -4.297653   1.050247
  235       -4.297430   1.050194
  236       -4.296122   1.049863
  237       -4.293956   1.049233
  238       -4.287990   1.046940
  239       -4.286199   1.046084
  240       -4.282281   1.043927
  241       -4.279029   1.041828
  242       -4.274103   1.038091
  243       -4.273659   1.037720
  244       -4.268111   1.032589
  245       -4.266838   1.031279
  246       -4.260023   1.023391
  247       -4.255012   1.016612
  248       -4.254001   1.015142
  249       -4.247942   1.005575
  250       -4.243866   0.998400
  251       -4.239386   0.989812
  252       -4.237644   0.986270
  253       -4.231887   0.973749
  254       -4.228202   0.965073
  255       -4.223997   0.954530
  256       -4.221759   0.948641
  257       -4.218975   0.941042
  258       -4.215973   0.932514
  259       -4.214213   0.927350
  260       -4.212988   0.923684
  261       -4.209892   0.914168
  262       -4.208008   0.908194
  263       -4.207413   0.906280
  264       -4.204678   0.897306
  265       -4.203515   0.893404
  266       -4.196956   0.870452
  267       -4.193522   0.857807
  268       -4.188547   0.838737
  269       -4.188044   0.836758
  270       -4.185632   0.827162
  271       -4.182856   0.815874
  272       -4.175863   0.786322
  273       -4.170167   0.761141
  274       -4.160542   0.716543
  275       -4.157058   0.699828
  276       -4.155540   0.692458
  277       -4.150622   0.668246
  278       -4.144444   0.637190
  279       -4.139337   0.611057
  280       -4.137469   0.601412
  281       -4.126964   0.546516
  282       -4.126684   0.545037
  283       -4.117381   0.495896
  284       -4.106340   0.437665
  285       -4.099793   0.403503
  286       -4.094922   0.378385
  287       -4.087772   0.342136
  288       -4.080549   0.306449
  289       -3.965417  -0.035281
  290       -3.889034  -0.042544
  291       -3.881281  -0.039188
  292       -3.794363  -0.003573
  293       -3.787365  -0.001899
  294       -3.659574   0.003553
  295       -3.477423   0.000110
  296       -3.452130   0.000056
  297       -3.195106   0.000000
  298       -3.038327   0.000000
  299       -3.030810   0.000000
  300       -3.024258   0.000000
  301       -2.997258   0.000000
  302       -2.985543   0.000000
  303       -2.967855   0.000000
  304       -2.893843   0.000000
  305       -2.765418   0.000000
  306       -2.494908   0.000000
  307       -2.477395   0.000000
  308       -2.405769   0.000000
  309       -2.309917   0.000000
  310       -2.157910   0.000000
  311       -2.092215   0.000000
  312       -2.003990   0.000000
  313       -1.928556   0.000000
  314       -1.920801   0.000000
  315       -1.837427   0.000000
  316       -1.827835   0.000000
  317       -1.811473   0.000000
  318       -1.739554   0.000000
  319       -1.647370   0.000000
  320       -1.613440   0.000000
  321       -1.555867   0.000000
  322       -1.528367   0.000000
  323       -1.378195   0.000000
  324       -1.323310   0.000000
  325       -1.252772   0.000000
  326       -1.210839   0.000000
  327       -1.127749   0.000000
  328       -1.036704   0.000000
  329       -0.956900   0.000000
  330       -0.954293   0.000000
  331       -0.910104   0.000000
  332       -0.895451   0.000000
  333       -0.807981   0.000000
  334       -0.785319   0.000000
  335       -0.750263   0.000000
  336       -0.694389   0.000000
