 vasp.5.4.4.18Apr17-6-g9f103f2a35 (build Sep 03 2018 23:53:05) complex          
  
 executed on             LinuxIFC date 2021.12.02  05:01:28
 running on    1 total cores
 distrk:  each k-point on    1 cores,    1 groups
 distr:  one band on NCORES_PER_BAND=   1 cores,    1 groups


--------------------------------------------------------------------------------------------------------


 INCAR:
 POTCAR:    PAW_PBE Pd 04Jan2005                  
 POTCAR:    PAW_PBE C 08Apr2002                   
 POTCAR:    PAW_PBE O 08Apr2002                   
 POTCAR:    PAW_PBE Pd 04Jan2005                  
   VRHFIN =Pd : s1 d9                                                           
   LEXCH  = PE                                                                  
   EATOM  =   809.7530 eV,   59.5152 Ry                                         
                                                                                
   TITEL  = PAW_PBE Pd 04Jan2005                                                
   LULTRA =        F    use ultrasoft PP ?                                      
   IUNSCR =        1    unscreen: 0-lin 1-nonlin 2-no                           
   RPACOR =    2.000    partial core radius                                     
   POMASS =  106.420; ZVAL   =   10.000    mass and valenz                      
   RCORE  =    2.600    outmost cutoff radius                                   
   RWIGS  =    2.710; RWIGS  =    1.434    wigner-seitz radius (au A)           
   ENMAX  =  250.925; ENMIN  =  188.194 eV                                      
   ICORE  =        3    local potential                                         
   LCOR   =        T    correct aug charges                                     
   LPAW   =        T    paw PP                                                  
   EAUG   =  416.230                                                            
   DEXC   =    0.000                                                            
   RMAX   =    2.653    core radius for proj-oper                               
   RAUG   =    1.300    factor for augmentation sphere                          
   RDEP   =    2.734    radius for radial grids                                 
   RDEPT  =    2.103    core radius for aug-charge                              
                                                                                
   Atomic configuration                                                         
   12 entries                                                                   
     n  l   j            E        occ.                                          
     1  0  0.50    -24164.6631   2.0000                                         
     2  0  0.50     -3530.9218   2.0000                                         
     2  1  1.50     -3165.6822   6.0000                                         
     3  0  0.50      -639.4577   2.0000                                         
     3  1  1.50      -519.4532   6.0000                                         
     3  2  2.50      -328.9757  10.0000                                         
     4  0  0.50       -88.7014   2.0000                                         
     4  1  1.50       -54.4540   6.0000                                         
     4  2  2.50        -6.6878   9.0000                                         
     5  0  0.50        -4.3543   1.0000                                         
     5  1  0.50        -1.3606   0.0000                                         
     4  3  2.50        -1.3606   0.0000                                         
   Description                                                                  
     l       E           TYP  RCUT    TYP  RCUT                                 
     2     -6.6878251     23  2.400                                             
     2     -8.0484077     23  2.400                                             
     0     -4.3542939     23  2.400                                             
     0      4.3406793     23  2.400                                             
     1     -4.0817478     23  2.600                                             
     1     15.8380318     23  2.600                                             
     3     -4.0817478     23  2.400                                             
  local pseudopotential read in
  partial core-charges read in
  partial kinetic energy density read in
  atomic valenz-charges read in
  non local Contribution for L=           2  read in
    real space projection operators read in
  non local Contribution for L=           2  read in
    real space projection operators read in
  non local Contribution for L=           0  read in
    real space projection operators read in
  non local Contribution for L=           0  read in
    real space projection operators read in
  non local Contribution for L=           1  read in
    real space projection operators read in
  non local Contribution for L=           1  read in
    real space projection operators read in
    PAW grid and wavefunctions read in
 
   number of l-projection  operators is LMAX  =           6
   number of lm-projection operators is LMMAX =          18
 
 POTCAR:    PAW_PBE C 08Apr2002                   
   VRHFIN =C: s2p2                                                              
   LEXCH  = PE                                                                  
   EATOM  =   147.1560 eV,   10.8157 Ry                                         
                                                                                
   TITEL  = PAW_PBE C 08Apr2002                                                 
   LULTRA =        F    use ultrasoft PP ?                                      
   IUNSCR =        1    unscreen: 0-lin 1-nonlin 2-no                           
   RPACOR =    1.200    partial core radius                                     
   POMASS =   12.011; ZVAL   =    4.000    mass and valenz                      
   RCORE  =    1.500    outmost cutoff radius                                   
   RWIGS  =    1.630; RWIGS  =    0.863    wigner-seitz radius (au A)           
   ENMAX  =  400.000; ENMIN  =  300.000 eV                                      
   ICORE  =        2    local potential                                         
   LCOR   =        T    correct aug charges                                     
   LPAW   =        T    paw PP                                                  
   EAUG   =  644.873                                                            
   DEXC   =    0.000                                                            
   RMAX   =    1.529    core radius for proj-oper                               
   RAUG   =    1.300    factor for augmentation sphere                          
   RDEP   =    1.501    radius for radial grids                                 
   RDEPT  =    1.300    core radius for aug-charge                              
                                                                                
   Atomic configuration                                                         
    4 entries                                                                   
     n  l   j            E        occ.                                          
     1  0  0.50      -273.3789   2.0000                                         
     2  0  0.50       -13.7508   2.0000                                         
     2  1  0.50        -5.2854   2.0000                                         
     3  2  1.50        -5.4423   0.0000                                         
   Description                                                                  
     l       E           TYP  RCUT    TYP  RCUT                                 
     0    -13.7508458     23  1.200                                             
     0     -8.2022199     23  1.200                                             
     1     -5.2854383     23  1.500                                             
     1     34.0145650     23  1.500                                             
     2     -5.4423304      7  1.500                                             
  local pseudopotential read in
  partial core-charges read in
  partial kinetic energy density read in
  atomic valenz-charges read in
  non local Contribution for L=           0  read in
    real space projection operators read in
  non local Contribution for L=           0  read in
    real space projection operators read in
  non local Contribution for L=           1  read in
    real space projection operators read in
  non local Contribution for L=           1  read in
    real space projection operators read in
    PAW grid and wavefunctions read in
 
   number of l-projection  operators is LMAX  =           4
   number of lm-projection operators is LMMAX =           8
 
 POTCAR:    PAW_PBE O 08Apr2002                   
   VRHFIN =O: s2p4                                                              
   LEXCH  = PE                                                                  
   EATOM  =   432.3788 eV,   31.7789 Ry                                         
                                                                                
   TITEL  = PAW_PBE O 08Apr2002                                                 
   LULTRA =        F    use ultrasoft PP ?                                      
   IUNSCR =        1    unscreen: 0-lin 1-nonlin 2-no                           
   RPACOR =    1.200    partial core radius                                     
   POMASS =   16.000; ZVAL   =    6.000    mass and valenz                      
   RCORE  =    1.520    outmost cutoff radius                                   
   RWIGS  =    1.550; RWIGS  =    0.820    wigner-seitz radius (au A)           
   ENMAX  =  400.000; ENMIN  =  300.000 eV                                      
   ICORE  =        2    local potential                                         
   LCOR   =        T    correct aug charges                                     
   LPAW   =        T    paw PP                                                  
   EAUG   =  605.392                                                            
   DEXC   =    0.000                                                            
   RMAX   =    1.553    core radius for proj-oper                               
   RAUG   =    1.300    factor for augmentation sphere                          
   RDEP   =    1.550    radius for radial grids                                 
   RDEPT  =    1.329    core radius for aug-charge                              
                                                                                
   Atomic configuration                                                         
    4 entries                                                                   
     n  l   j            E        occ.                                          
     1  0  0.50      -514.6923   2.0000                                         
     2  0  0.50       -23.9615   2.0000                                         
     2  1  0.50        -9.0305   4.0000                                         
     3  2  1.50        -9.5241   0.0000                                         
   Description                                                                  
     l       E           TYP  RCUT    TYP  RCUT                                 
     0    -23.9615318     23  1.200                                             
     0     -9.5240782     23  1.200                                             
     1     -9.0304911     23  1.520                                             
     1      8.1634956     23  1.520                                             
     2     -9.5240782      7  1.500                                             
  local pseudopotential read in
  partial core-charges read in
  partial kinetic energy density read in
  kinetic energy density of atom read in
  atomic valenz-charges read in
  non local Contribution for L=           0  read in
    real space projection operators read in
  non local Contribution for L=           0  read in
    real space projection operators read in
  non local Contribution for L=           1  read in
    real space projection operators read in
  non local Contribution for L=           1  read in
    real space projection operators read in
    PAW grid and wavefunctions read in
 
   number of l-projection  operators is LMAX  =           4
   number of lm-projection operators is LMMAX =           8
 
 Optimization of the real space projectors (new method)

 maximal supplied QI-value         = 14.36
 optimisation between [QCUT,QGAM] = [ 10.20, 20.39] = [ 29.12,116.47] Ry 
 Optimized for a Real-space Cutoff    1.51 Angstroem

   l    n(q)    QCUT    max X(q) W(low)/X(q) W(high)/X(q)  e(spline) 
   2      8    10.197    59.108    0.26E-03    0.14E-03    0.96E-07
   2      8    10.197    58.101    0.27E-03    0.14E-03    0.98E-07
   0      9    10.197   102.235    0.54E-04    0.60E-05    0.72E-07
   0      9    10.197    58.388    0.52E-04    0.60E-05    0.68E-07
   1      9    10.197    22.191    0.18E-03    0.25E-03    0.79E-07
   1      9    10.197    15.590    0.15E-03    0.21E-03    0.69E-07
 Optimization of the real space projectors (new method)

 maximal supplied QI-value         = 25.13
 optimisation between [QCUT,QGAM] = [ 10.05, 20.36] = [ 28.30,116.06] Ry 
 Optimized for a Real-space Cutoff    1.30 Angstroem

   l    n(q)    QCUT    max X(q) W(low)/X(q) W(high)/X(q)  e(spline) 
   0      8    10.053   115.676    0.49E-03    0.72E-03    0.18E-06
   0      8    10.053    87.132    0.49E-03    0.71E-03    0.18E-06
   1      7    10.053     4.429    0.32E-03    0.31E-03    0.18E-06
   1      7    10.053     2.733    0.23E-03    0.19E-03    0.20E-06
 Optimization of the real space projectors (new method)

 maximal supplied QI-value         = 24.76
 optimisation between [QCUT,QGAM] = [ 10.15, 20.30] = [ 28.85,115.39] Ry 
 Optimized for a Real-space Cutoff    1.38 Angstroem

   l    n(q)    QCUT    max X(q) W(low)/X(q) W(high)/X(q)  e(spline) 
   0      8    10.150    20.381    0.22E-03    0.32E-03    0.29E-06
   0      8    10.150    15.268    0.23E-03    0.35E-03    0.30E-06
   1      8    10.150     5.964    0.46E-03    0.53E-03    0.21E-06
   1      8    10.150     5.382    0.38E-03    0.45E-03    0.19E-06

 ----------------------------------------------------------------------------- 
|                                                                             |
|  ADVICE TO THIS USER RUNNING 'VASP/VAMP'   (HEAR YOUR MASTER'S VOICE ...):  |
|                                                                             |
|      You enforced a specific xc-type in the INCAR file,                     |
|      a different type was found on the POTCAR file                          |
|          I HOPE YOU KNOW, WHAT YOU ARE  DOING                               |
|                                                                             |
 ----------------------------------------------------------------------------- 

  PAW_PBE Pd 04Jan2005                  :
 energy of atom  1       EATOM= -809.7530
 kinetic energy error for atom=    0.0091 (will be added to EATOM!!)
  PAW_PBE C 08Apr2002                   :
 energy of atom  2       EATOM= -147.1560
 kinetic energy error for atom=    0.0288 (will be added to EATOM!!)
  PAW_PBE O 08Apr2002                   :
 energy of atom  3       EATOM= -432.3788
 kinetic energy error for atom=    0.1156 (will be added to EATOM!!)
 
 
 POSCAR: Pd55PES                                 
  positions in cartesian coordinates
  No initial velocities read in
 exchange correlation table for  LEXCH =        9
   RHO(1)=    0.500       N(1)  =     2000
   RHO(2)=  100.500       N(2)  =     4000
 


--------------------------------------------------------------------------------------------------------


 ion  position               nearest neighbor table
   1  0.446  0.328  0.417-   3 3.25   5 3.25   7 3.36  15 3.36  29 3.42  28 3.42
   2  0.672  0.554  0.417-  26 3.25  30 3.25  17 3.36   9 3.36  47 3.42  49 3.42
   3  0.554  0.328  0.417-   1 3.25   5 3.25   7 3.36  11 3.36  29 3.42  21 3.42
   4  0.328  0.554  0.417-  32 3.25  22 3.25  13 3.36   8 3.36  43 3.42  48 3.42
   5  0.500  0.383  0.340-   1 3.25   3 3.25  11 3.36  15 3.36  21 3.42  28 3.42
   6  0.500  0.383  0.660-  24 3.25  19 3.25  16 3.36  12 3.36  42 3.42  44 3.42
   7  0.500  0.276  0.500-  29 3.24   3 3.36   1 3.36  19 3.36  24 3.36
   8  0.276  0.500  0.500-  48 3.24  22 3.36  40 3.36   4 3.36  25 3.36
   9  0.724  0.500  0.500-  49 3.24  26 3.36  45 3.36   2 3.36  20 3.36
  10  0.500  0.724  0.500-  55 3.24  27 3.36  23 3.36  46 3.36  41 3.36
  11  0.612  0.388  0.342-  21 3.24   5 3.36   3 3.36  30 3.36  26 3.36
  12  0.612  0.388  0.658-  42 3.24  24 3.36  45 3.36   6 3.36  31 3.36
  13  0.388  0.612  0.342-  43 3.24  32 3.36  50 3.36   4 3.36  27 3.36
  14  0.388  0.612  0.658-  53 3.24  25 3.36  33 3.36  51 3.36  46 3.36
  15  0.388  0.388  0.342-  28 3.24   5 3.36   1 3.36  32 3.36  22 3.36
  16  0.388  0.388  0.658-  44 3.24  19 3.36  40 3.36   6 3.36  33 3.36
  17  0.612  0.612  0.342-  47 3.24  30 3.36  50 3.36   2 3.36  23 3.36
  18  0.612  0.612  0.658-  54 3.24  31 3.36  20 3.36  51 3.36  41 3.36
  19  0.446  0.328  0.583-   6 3.25  24 3.25  16 3.36   7 3.36  44 3.42  29 3.42
  20  0.672  0.554  0.583-  31 3.25  45 3.25  18 3.36   9 3.36  54 3.42  49 3.42
  21  0.558  0.442  0.418-  11 3.24   5 3.42   3 3.42  30 3.42  26 3.42
  22  0.328  0.446  0.417-   4 3.25  32 3.25   8 3.36  15 3.36  48 3.42  28 3.42
  23  0.554  0.672  0.417-  27 3.25  50 3.25  10 3.36  17 3.36  55 3.42  47 3.42
  24  0.554  0.328  0.583-   6 3.25  19 3.25  12 3.36   7 3.36  42 3.42  29 3.42
  25  0.328  0.554  0.583-  33 3.25  40 3.25  14 3.36   8 3.36  53 3.42  48 3.42
  26  0.672  0.446  0.417-   2 3.25  30 3.25   9 3.36  11 3.36  49 3.42  21 3.42
  27  0.446  0.672  0.417-  23 3.25  50 3.25  10 3.36  13 3.36  55 3.42  43 3.42
  28  0.442  0.442  0.418-  15 3.24   5 3.42   1 3.42  32 3.42  22 3.42
  29  0.500  0.384  0.500-   7 3.24   3 3.42   1 3.42  24 3.42  19 3.42
  30  0.617  0.500  0.340-   2 3.25  26 3.25  17 3.36  11 3.36  47 3.42  21 3.42
  31  0.617  0.500  0.660-  20 3.25  45 3.25  18 3.36  12 3.36  54 3.42  42 3.42
  32  0.383  0.500  0.340-   4 3.25  22 3.25  13 3.36  15 3.36  43 3.42  28 3.42
  33  0.383  0.500  0.660-  25 3.25  40 3.25  14 3.36  16 3.36  53 3.42  44 3.42
  34  0.383  0.383  0.500-
  35  0.617  0.617  0.500-
  36  0.617  0.383  0.500-
  37  0.383  0.617  0.500-
  38  0.500  0.500  0.335-
  39  0.500  0.500  0.665-  56 2.22
  40  0.328  0.446  0.583-  33 3.25  25 3.25  16 3.36   8 3.36  44 3.42  48 3.42
  41  0.554  0.672  0.583-  46 3.25  51 3.25  10 3.36  18 3.36  54 3.42  55 3.42
  42  0.558  0.442  0.582-  12 3.24   6 3.42  24 3.42  31 3.42  45 3.42
  43  0.442  0.558  0.418-  13 3.24   4 3.42  32 3.42  27 3.42  50 3.42
  44  0.442  0.442  0.582-  16 3.24   6 3.42  19 3.42  33 3.42  40 3.42
  45  0.672  0.446  0.583-  20 3.25  31 3.25   9 3.36  12 3.36  49 3.42  42 3.42
  46  0.446  0.672  0.583-  41 3.25  51 3.25  10 3.36  14 3.36  53 3.42  55 3.42
  47  0.558  0.558  0.418-  17 3.24   2 3.42  30 3.42  23 3.42  50 3.42
  48  0.384  0.500  0.500-   8 3.24   4 3.42  22 3.42  25 3.42  40 3.42
  49  0.616  0.500  0.500-   9 3.24   2 3.42  26 3.42  20 3.42  45 3.42
  50  0.500  0.617  0.340-  27 3.25  23 3.25  13 3.36  17 3.36  43 3.42  47 3.42
  51  0.500  0.617  0.660-  41 3.25  46 3.25  14 3.36  18 3.36  53 3.42  54 3.42
  52  0.500  0.500  0.500-
  53  0.442  0.558  0.582-  14 3.24  25 3.42  33 3.42  51 3.42  46 3.42
  54  0.558  0.558  0.582-  18 3.24  31 3.42  20 3.42  51 3.42  41 3.42
  55  0.500  0.616  0.500-  10 3.24  23 3.42  27 3.42  41 3.42  46 3.42
  56  0.501  0.485  0.738-  57 1.13  39 2.22
  57  0.502  0.482  0.775-  56 1.13
 
  LATTYP: Found a simple cubic cell.
 ALAT       =    30.0000000000
  
  Lattice vectors:
  
 A1 = (  30.0000000000,   0.0000000000,   0.0000000000)
 A2 = (   0.0000000000,  30.0000000000,   0.0000000000)
 A3 = (   0.0000000000,   0.0000000000,  30.0000000000)


Analysis of symmetry for initial positions (statically):
=====================================================================
 Subroutine PRICEL returns:
 Original cell was already a primitive cell.
 

 Routine SETGRP: Setting up the symmetry group for a 
 simple cubic supercell.


 Subroutine GETGRP returns: Found  1 space group operations
 (whereof  1 operations were pure point group operations)
 out of a pool of 48 trial point group operations.


The static configuration has the point symmetry C_1 .


Analysis of symmetry for dynamics (positions and initial velocities):
=====================================================================
 Subroutine PRICEL returns:
 Original cell was already a primitive cell.
 

 Routine SETGRP: Setting up the symmetry group for a 
 simple cubic supercell.


 Subroutine GETGRP returns: Found  1 space group operations
 (whereof  1 operations were pure point group operations)
 out of a pool of 48 trial point group operations.


The dynamic configuration has the point symmetry C_1 .


Analysis of constrained symmetry for selective dynamics:
=====================================================================
 Subroutine PRICEL returns:
 Original cell was already a primitive cell.
 

 Routine SETGRP: Setting up the symmetry group for a 
 simple cubic supercell.


 Subroutine GETGRP returns: Found  1 space group operations
 (whereof  1 operations were pure point group operations)
 out of a pool of 48 trial point group operations.


The constrained configuration has the point symmetry C_1 .


 Subroutine INISYM returns: Found  1 space group operations
 (whereof  1 operations are pure point group operations),
 and found     1 'primitive' translations

 
 
 KPOINTS: K-points                                

Automatic generation of k-mesh.
Space group operators:
 irot       det(A)        alpha          n_x          n_y          n_z        tau_x        tau_y        tau_z
    1     1.000000     0.000000     1.000000     0.000000     0.000000     0.000000     0.000000     0.000000
 
 Subroutine IBZKPT returns following result:
 ===========================================
 
 Found      1 irreducible k-points:
 
 Following reciprocal coordinates:
            Coordinates               Weight
  0.000000  0.000000  0.000000      1.000000
 
 Following cartesian coordinates:
            Coordinates               Weight
  0.000000  0.000000  0.000000      1.000000
 


--------------------------------------------------------------------------------------------------------




 Dimension of arrays:
   k-points           NKPTS =      1   k-points in BZ     NKDIM =      1   number of bands    NBANDS=    336
   number of dos      NEDOS =    301   number of ions     NIONS =     57
   non local maximal  LDIM  =      6   non local SUM 2l+1 LMDIM =     18
   total plane-waves  NPLWV = ******
   max r-space proj   IRMAX =   1847   max aug-charges    IRDMAX=   6262
   dimension x,y,z NGX =   150 NGY =  150 NGZ =  150
   dimension x,y,z NGXF=   300 NGYF=  300 NGZF=  300
   support grid    NGXF=   300 NGYF=  300 NGZF=  300
   ions per type =              55   1   1
   NGX,Y,Z   is equivalent  to a cutoff of   8.31,  8.31,  8.31 a.u.
   NGXF,Y,Z  is equivalent  to a cutoff of  16.62, 16.62, 16.62 a.u.

 SYSTEM =  6_Pd100_top_free_z(O)                   
 POSCAR =  Pd55PES                                 

 Startparameter for this run:
   NWRITE =      2    write-flag & timer
   PREC   = normal    normal or accurate (medium, high low for compatibility)
   ISTART =      0    job   : 0-new  1-cont  2-samecut
   ICHARG =      2    charge: 1-file 2-atom 10-const
   ISPIN  =      1    spin polarized calculation?
   LNONCOLLINEAR =      F non collinear calculations
   LSORBIT =      F    spin-orbit coupling
   INIWAV =      1    electr: 0-lowe 1-rand  2-diag
   LASPH  =      F    aspherical Exc in radial PAW
   METAGGA=      F    non-selfconsistent MetaGGA calc.

 Electronic Relaxation 1
   ENCUT  =  400.0 eV  29.40 Ry    5.42 a.u.  48.92 48.92 48.92*2*pi/ulx,y,z
   ENINI  =  400.0     initial cutoff
   ENAUG  =  644.9 eV  augmentation charge cutoff
   NELM   =    100;   NELMIN=  6; NELMDL= -5     # of ELM steps 
   EDIFF  = 0.1E-03   stopping-criterion for ELM
   LREAL  =      T    real-space projection
   NLSPLINE    = F    spline interpolate recip. space projectors
   LCOMPAT=      F    compatible to vasp.4.4
   GGA_COMPAT  = T    GGA compatible to vasp.4.4-vasp.4.6
   LMAXPAW     = -100 max onsite density
   LMAXMIX     =    2 max onsite mixed and CHGCAR
   VOSKOWN=      0    Vosko Wilk Nusair interpolation
   ROPT   =   -0.00050  -0.00050  -0.00050
 Ionic relaxation
   EDIFFG = -.5E-01   stopping-criterion for IOM
   NSW    =      0    number of steps for IOM
   NBLOCK =      1;   KBLOCK =      1    inner block; outer block 
   IBRION =     -1    ionic relax: 0-MD 1-quasi-New 2-CG
   NFREE  =      1    steps in history (QN), initial steepest desc. (CG)
   ISIF   =      2    stress and relaxation
   IWAVPR =     10    prediction:  0-non 1-charg 2-wave 3-comb
   ISYM   =      2    0-nonsym 1-usesym 2-fastsym
   LCORR  =      T    Harris-Foulkes like correction to forces

   POTIM  = 0.5000    time-step for ionic-motion
   TEIN   =    0.0    initial temperature
   TEBEG  =    0.0;   TEEND  =   0.0 temperature during run
   SMASS  =  -3.00    Nose mass-parameter (am)
   estimated Nose-frequenzy (Omega)   =  0.10E-29 period in steps =****** mass=  -0.206E-25a.u.
   SCALEE = 1.0000    scale energy and forces
   NPACO  =    256;   APACO  = 16.0  distance and # of slots for P.C.
   PSTRESS=    0.0 pullay stress

  Mass of Ions in am
   POMASS = 106.42 12.01 16.00
  Ionic Valenz
   ZVAL   =  10.00  4.00  6.00
  Atomic Wigner-Seitz radii
   RWIGS  =  -1.00 -1.00 -1.00
  virtual crystal weights 
   VCA    =   1.00  1.00  1.00
   NELECT =     560.0000    total number of electrons
   NUPDOWN=      -1.0000    fix difference up-down

 DOS related values:
   EMIN   =  10.00;   EMAX   =-10.00  energy-range for DOS
   EFERMI =   0.00
   ISMEAR =     2;   SIGMA  =   0.20  broadening in eV -4-tet -1-fermi 0-gaus

 Electronic relaxation 2 (details)
   IALGO  =     68    algorithm
   LDIAG  =      T    sub-space diagonalisation (order eigenvalues)
   LSUBROT=      F    optimize rotation matrix (better conditioning)
   TURBO    =      0    0=normal 1=particle mesh
   IRESTART =      0    0=no restart 2=restart with 2 vectors
   NREBOOT  =      0    no. of reboots
   NMIN     =      0    reboot dimension
   EREF     =   0.00    reference energy to select bands
   IMIX   =      4    mixing-type and parameters
     AMIX     =   0.40;   BMIX     =  1.00
     AMIX_MAG =   1.60;   BMIX_MAG =  1.00
     AMIN     =   0.10
     WC   =   100.;   INIMIX=   1;  MIXPRE=   1;  MAXMIX= -45

 Intra band minimization:
   WEIMIN = 0.0000     energy-eigenvalue tresh-hold
   EBREAK =  0.74E-07  absolut break condition
   DEPER  =   0.30     relativ break condition  

   TIME   =   0.40     timestep for ELM

  volume/ion in A,a.u.               =     473.68      3196.58
  Fermi-wavevector in a.u.,A,eV,Ry     =   0.449797  0.849992  2.752691  0.202317
  Thomas-Fermi vector in A             =   1.430086
 
 Write flags
   LWAVE        =      F    write WAVECAR
   LDOWNSAMPLE  =      F    k-point downsampling of WAVECAR
   LCHARG       =      F    write CHGCAR
   LVTOT        =      F    write LOCPOT, total local potential
   LVHAR        =      F    write LOCPOT, Hartree potential only
   LELF         =      F    write electronic localiz. function (ELF)
   LORBIT       =      0    0 simple, 1 ext, 2 COOP (PROOUT), +10 PAW based schemes


 Dipole corrections
   LMONO  =      F    monopole corrections only (constant potential shift)
   LDIPOL =      F    correct potential (dipole corrections)
   IDIPOL =      0    1-x, 2-y, 3-z, 4-all directions 
   EPSILON=  1.0000000 bulk dielectric constant

 Exchange correlation treatment:
   GGA     =    RP    GGA type
   LEXCH   =     9    internal setting for exchange type
   VOSKOWN=      0    Vosko Wilk Nusair interpolation
   LHFCALC =     F    Hartree Fock is set to
   LHFONE  =     F    Hartree Fock one center treatment
   AEXX    =    0.0000 exact exchange contribution

 Linear response parameters
   LEPSILON=     F    determine dielectric tensor
   LRPA    =     F    only Hartree local field effects (RPA)
   LNABLA  =     F    use nabla operator in PAW spheres
   LVEL    =     F    velocity operator in full k-point grid
   LINTERFAST=   F  fast interpolation
   KINTER  =     0    interpolate to denser k-point grid
   CSHIFT  =0.1000    complex shift for real part using Kramers Kronig
   OMEGAMAX=  -1.0    maximum frequency
   DEG_THRESHOLD= 0.2000000E-02 threshold for treating states as degnerate
   RTIME   =   -0.100 relaxation time in fs
  (WPLASMAI=    0.000 imaginary part of plasma frequency in eV, 0.658/RTIME)
   DFIELD  = 0.0000000 0.0000000 0.0000000 field for delta impulse in time
 
 Orbital magnetization related:
   ORBITALMAG=     F  switch on orbital magnetization
   LCHIMAG   =     F  perturbation theory with respect to B field
   DQ        =  0.001000  dq finite difference perturbation B field
   LLRAUG    =     F  two centre corrections for induced B field



--------------------------------------------------------------------------------------------------------


 Static calculation
 charge density and potential will be updated during run
 non-spin polarized calculation
 RMM-DIIS sequential band-by-band and
  variant of blocked Davidson during initial phase
 perform sub-space diagonalisation
    before iterative eigenvector-optimisation
 modified Broyden-mixing scheme, WC =      100.0
 initial mixing is a Kerker type mixing with AMIX =  0.4000 and BMIX =      1.0000
 Hartree-type preconditioning will be used
 using additional bands           56
 real space projection scheme for non local part
 use partial core corrections
 calculate Harris-corrections to forces 
   (improved forces if not selfconsistent)
 use gradient corrections 
 use of overlap-Matrix (Vanderbilt PP)
 Methfessel and Paxton  Order N= 2 SIGMA  =   0.20


--------------------------------------------------------------------------------------------------------


  energy-cutoff  :      400.00
  volume of cell :    27000.00
      direct lattice vectors                 reciprocal lattice vectors
    30.000000000  0.000000000  0.000000000     0.033333333  0.000000000  0.000000000
     0.000000000 30.000000000  0.000000000     0.000000000  0.033333333  0.000000000
     0.000000000  0.000000000 30.000000000     0.000000000  0.000000000  0.033333333

  length of vectors
    30.000000000 30.000000000 30.000000000     0.033333333  0.033333333  0.033333333


 
 k-points in units of 2pi/SCALE and weight: K-points                                
   0.00000000  0.00000000  0.00000000       1.000
 
 k-points in reciprocal lattice and weights: K-points                                
   0.00000000  0.00000000  0.00000000       1.000
 
 position of ions in fractional coordinates (direct lattice) 
   0.44576020  0.32826710  0.41691983
   0.67173288  0.55423978  0.41691983
   0.55423980  0.32826710  0.41691983
   0.32826712  0.55423978  0.41691983
   0.50000000  0.38250690  0.34021317
   0.50000000  0.38250690  0.65978680
   0.50000000  0.27609440  0.50000000
   0.27609443  0.49999998  0.50000000
   0.72390557  0.49999998  0.50000000
   0.50000000  0.72390555  0.50000000
   0.61195280  0.38804720  0.34167483
   0.61195280  0.38804720  0.65832513
   0.38804722  0.61195278  0.34167483
   0.38804722  0.61195278  0.65832513
   0.38804720  0.38804720  0.34167483
   0.38804720  0.38804720  0.65832513
   0.61195278  0.61195278  0.34167483
   0.61195278  0.61195278  0.65832513
   0.44576020  0.32826710  0.58308023
   0.67173288  0.55423978  0.58308023
   0.55791699  0.44208301  0.41809300
   0.32826705  0.44576024  0.41691983
   0.55423973  0.67173293  0.41691983
   0.55423980  0.32826710  0.58308023
   0.32826712  0.55423978  0.58308023
   0.67173295  0.44576024  0.41691983
   0.44576027  0.67173293  0.41691983
   0.44208301  0.44208301  0.41809300
   0.50000000  0.38416601  0.50000000
   0.61749315  0.50000005  0.34021317
   0.61749315  0.50000005  0.65978680
   0.38250685  0.50000005  0.34021317
   0.38250685  0.50000005  0.65978680
   0.38317830  0.38317830  0.50000000
   0.61682172  0.61682172  0.50000000
   0.61682170  0.38317830  0.50000000
   0.38317828  0.61682172  0.50000000
   0.50000000  0.50000000  0.33478917
   0.50000000  0.50000000  0.66521087
   0.32826705  0.44576024  0.58308023
   0.55423973  0.67173293  0.58308023
   0.55791699  0.44208301  0.58190703
   0.44208298  0.55791702  0.41809300
   0.44208301  0.44208301  0.58190703
   0.67173295  0.44576024  0.58308023
   0.44576027  0.67173293  0.58308023
   0.55791702  0.55791702  0.41809300
   0.38416599  0.50000002  0.50000000
   0.61583401  0.50000002  0.50000000
   0.50000000  0.61749319  0.34021317
   0.50000000  0.61749319  0.65978680
   0.50000000  0.50000000  0.50000000
   0.44208298  0.55791702  0.58190703
   0.55791702  0.55791702  0.58190703
   0.50000000  0.61583404  0.50000000
   0.50133810  0.48455280  0.73753700
   0.50154943  0.48211287  0.77505717
 
 position of ions in cartesian coordinates  (Angst):
  13.37280588  9.84801292 12.50759500
  20.15198637 16.62719342 12.50759500
  16.62719412  9.84801292 12.50759500
   9.84801363 16.62719342 12.50759500
  15.00000000 11.47520705 10.20639500
  15.00000000 11.47520705 19.79360400
  15.00000000  8.28283206 15.00000000
   8.28283277 14.99999929 15.00000000
  21.71716723 14.99999929 15.00000000
  15.00000000 21.71716652 14.99999999
  18.35858397 11.64141603 10.25024500
  18.35858397 11.64141603 19.74975399
  11.64141674 18.35858326 10.25024500
  11.64141674 18.35858326 19.74975400
  11.64141603 11.64141603 10.25024500
  11.64141603 11.64141603 19.74975400
  18.35858326 18.35858326 10.25024500
  18.35858326 18.35858326 19.74975400
  13.37280588  9.84801291 17.49240700
  20.15198638 16.62719341 17.49240700
  16.73750985 13.26249015 12.54279000
   9.84801151 13.37280729 12.50759500
  16.62719200 20.15198779 12.50759500
  16.62719412  9.84801292 17.49240700
   9.84801363 16.62719342 17.49240700
  20.15198849 13.37280729 12.50759500
  13.37280800 20.15198779 12.50759500
  13.26249015 13.26249015 12.54279000
  15.00000000 11.52498029 15.00000000
  18.52479437 15.00000140 10.20639500
  18.52479437 15.00000141 19.79360400
  11.47520562 15.00000141 10.20639501
  11.47520563 15.00000141 19.79360400
  11.49534898 11.49534898 15.00000000
  18.50465172 18.50465172 15.00000000
  18.50465102 11.49534898 15.00000000
  11.49534828 18.50465172 15.00000000
  15.00000000 15.00000000 10.04367500
  15.00000000 15.00000000 19.95632599
   9.84801151 13.37280729 17.49240700
  16.62719200 20.15198779 17.49240700
  16.73750985 13.26249015 17.45721100
  13.26248944 16.73751056 12.54279001
  13.26249015 13.26249015 17.45721100
  20.15198849 13.37280729 17.49240699
  13.37280800 20.15198779 17.49240700
  16.73751056 16.73751056 12.54279000
  11.52497959 15.00000071 15.00000000
  18.47502041 15.00000071 15.00000000
  14.99999999 18.52479579 10.20639500
  15.00000000 18.52479578 19.79360400
  15.00000000 15.00000000 15.00000000
  13.26248944 16.73751057 17.45721101
  16.73751056 16.73751057 17.45721100
  15.00000000 18.47502112 15.00000000
  15.04014300 14.53658400 22.12611000
  15.04648300 14.46338600 23.25171500
 


--------------------------------------------------------------------------------------------------------


 k-point  1 :   0.0000 0.0000 0.0000  plane waves:  490521

 maximum and minimum number of plane-waves per node :    490521   490521

 maximum number of plane-waves:    490521
 maximum index in each direction: 
   IXMAX=   48   IYMAX=   48   IZMAX=   48
   IXMIN=  -48   IYMIN=  -48   IZMIN=  -48


 serial   3D FFT for wavefunctions
 parallel 3D FFT for charge:
    minimum data exchange during FFTs selected (reduces bandwidth)


 total amount of memory used by VASP MPI-rank0  5486941. kBytes
=======================================================================

   base      :      30000. kBytes
   nonlr-proj:      17126. kBytes
   fftplans  :     924480. kBytes
   grid      :    1872000. kBytes
   one-center:        886. kBytes
   wavefun   :    2642449. kBytes
 
     INWAV:  cpu time    0.0001: real time    0.0003
 Broyden mixing: mesh for mixing (old mesh)
   NGX = 97   NGY = 97   NGZ = 97
  (NGX  =300   NGY  =300   NGZ  =300)
  gives a total of 912673 points

 initial charge density was supplied:
 charge density of overlapping atoms calculated
 number of electron     560.0000000 magnetization 
 keeping initial charge density in first step


--------------------------------------------------------------------------------------------------------


 Maximum index for non-local projection operator         1763
 Maximum index for augmentation-charges         5898 (set IRDMAX)


--------------------------------------------------------------------------------------------------------


 First call to EWALD:  gamma=   0.059
 Maximum number of real-space cells 3x 3x 3
 Maximum number of reciprocal cells 3x 3x 3

    FEWALD:  cpu time    0.0149: real time    0.0149


--------------------------------------- Iteration      1(   1)  ---------------------------------------


    POTLOK:  cpu time   13.6211: real time   13.6249
    SETDIJ:  cpu time    0.1185: real time    0.1185
     EDDAV:  cpu time  344.1145: real time  344.1995
       DOS:  cpu time    0.0013: real time    0.0013
    --------------------------------------------
      LOOP:  cpu time  357.8554: real time  357.9441

 eigenvalue-minimisations  :   688
 total energy-change (2. order) : 0.4386433E+04  (-0.1004781E+05)
 number of electron     560.0000000 magnetization 
 augmentation part      560.0000000 magnetization 

 Free energy of the ion-electron system (eV)
  ---------------------------------------------------
  alpha Z        PSCENC =        75.25431677
  Ewald energy   TEWEN  =    138322.51412561
  -Hartree energ DENC   =   -181687.79632787
  -exchange      EXHF   =         0.00000000
  -V(xc)+E(xc)   XCENC  =     -1703.59050543
  PAW double counting   =     44873.02882129   -41398.84523641
  entropy T*S    EENTRO =         0.00602300
  eigenvalues    EBANDS =       819.35642023
  atomic energy  EATOM  =     45086.50549395
  Solvation  Ediel_sol  =         0.00000000
  ---------------------------------------------------
  free energy    TOTEN  =      4386.43313114 eV

  energy without entropy =     4386.42710814  energy(sigma->0) =     4386.43162539


--------------------------------------------------------------------------------------------------------




--------------------------------------- Iteration      1(   2)  ---------------------------------------


     EDDAV:  cpu time  560.0986: real time  560.1041
       DOS:  cpu time    0.0012: real time    0.0012
    --------------------------------------------
      LOOP:  cpu time  560.0998: real time  560.1053

 eigenvalue-minimisations  :  1224
 total energy-change (2. order) :-0.2375204E+04  (-0.2135358E+04)
 number of electron     560.0000000 magnetization 
 augmentation part      560.0000000 magnetization 

 Free energy of the ion-electron system (eV)
  ---------------------------------------------------
  alpha Z        PSCENC =        75.25431677
  Ewald energy   TEWEN  =    138322.51412561
  -Hartree energ DENC   =   -181687.79632787
  -exchange      EXHF   =         0.00000000
  -V(xc)+E(xc)   XCENC  =     -1703.59050543
  PAW double counting   =     44873.02882129   -41398.84523641
  entropy T*S    EENTRO =        -0.00821114
  eigenvalues    EBANDS =     -1555.83338301
  atomic energy  EATOM  =     45086.50549395
  Solvation  Ediel_sol  =         0.00000000
  ---------------------------------------------------
  free energy    TOTEN  =      2011.22909375 eV

  energy without entropy =     2011.23730490  energy(sigma->0) =     2011.23114654


--------------------------------------------------------------------------------------------------------




--------------------------------------- Iteration      1(   3)  ---------------------------------------


     EDDAV:  cpu time  458.9358: real time  458.9422
       DOS:  cpu time    0.0011: real time    0.0011
    --------------------------------------------
      LOOP:  cpu time  458.9369: real time  458.9432

 eigenvalue-minimisations  :   976
 total energy-change (2. order) :-0.1773725E+04  (-0.1669618E+04)
 number of electron     560.0000000 magnetization 
 augmentation part      560.0000000 magnetization 

 Free energy of the ion-electron system (eV)
  ---------------------------------------------------
  alpha Z        PSCENC =        75.25431677
  Ewald energy   TEWEN  =    138322.51412561
  -Hartree energ DENC   =   -181687.79632787
  -exchange      EXHF   =         0.00000000
  -V(xc)+E(xc)   XCENC  =     -1703.59050543
  PAW double counting   =     44873.02882129   -41398.84523641
  entropy T*S    EENTRO =        -0.00746816
  eigenvalues    EBANDS =     -3329.55929369
  atomic energy  EATOM  =     45086.50549395
  Solvation  Ediel_sol  =         0.00000000
  ---------------------------------------------------
  free energy    TOTEN  =       237.50392605 eV

  energy without entropy =      237.51139422  energy(sigma->0) =      237.50579309


--------------------------------------------------------------------------------------------------------




--------------------------------------- Iteration      1(   4)  ---------------------------------------


     EDDAV:  cpu time  399.8329: real time  399.8340
       DOS:  cpu time    0.0012: real time    0.0011
    --------------------------------------------
      LOOP:  cpu time  399.8341: real time  399.8351

 eigenvalue-minimisations  :   832
 total energy-change (2. order) :-0.3727354E+03  (-0.3172813E+03)
 number of electron     560.0000000 magnetization 
 augmentation part      560.0000000 magnetization 

 Free energy of the ion-electron system (eV)
  ---------------------------------------------------
  alpha Z        PSCENC =        75.25431677
  Ewald energy   TEWEN  =    138322.51412561
  -Hartree energ DENC   =   -181687.79632787
  -exchange      EXHF   =         0.00000000
  -V(xc)+E(xc)   XCENC  =     -1703.59050543
  PAW double counting   =     44873.02882129   -41398.84523641
  entropy T*S    EENTRO =         0.00813964
  eigenvalues    EBANDS =     -3702.31025979
  atomic energy  EATOM  =     45086.50549395
  Solvation  Ediel_sol  =         0.00000000
  ---------------------------------------------------
  free energy    TOTEN  =      -135.23143224 eV

  energy without entropy =     -135.23957188  energy(sigma->0) =     -135.23346715


--------------------------------------------------------------------------------------------------------




--------------------------------------- Iteration      1(   5)  ---------------------------------------


     EDDAV:  cpu time  486.1399: real time  486.1538
       DOS:  cpu time    0.0014: real time    0.0014
    CHARGE:  cpu time   24.5308: real time   24.5308
    MIXING:  cpu time    0.4351: real time    0.4351
    --------------------------------------------
      LOOP:  cpu time  511.1072: real time  511.1212

 eigenvalue-minimisations  :  1048
 total energy-change (2. order) :-0.4415144E+02  (-0.3650526E+02)
 number of electron     559.9999820 magnetization 
 augmentation part      245.1720304 magnetization 

 Broyden mixing:
  rms(total) = 0.14300E+01    rms(broyden)= 0.14291E+01
  rms(prec ) = 0.15358E+01
  weight for this iteration     100.00

 Free energy of the ion-electron system (eV)
  ---------------------------------------------------
  alpha Z        PSCENC =        75.25431677
  Ewald energy   TEWEN  =    138322.51412561
  -Hartree energ DENC   =   -181687.79632787
  -exchange      EXHF   =         0.00000000
  -V(xc)+E(xc)   XCENC  =     -1703.59050543
  PAW double counting   =     44873.02882129   -41398.84523641
  entropy T*S    EENTRO =         0.57147527
  eigenvalues    EBANDS =     -3747.02503793
  atomic energy  EATOM  =     45086.50549395
  Solvation  Ediel_sol  =         0.00000000
  ---------------------------------------------------
  free energy    TOTEN  =      -179.38287475 eV

  energy without entropy =     -179.95435002  energy(sigma->0) =     -179.52574356


--------------------------------------------------------------------------------------------------------




--------------------------------------- Iteration      1(   6)  ---------------------------------------


    POTLOK:  cpu time   12.8430: real time   12.8438
    SETDIJ:  cpu time    0.1217: real time    0.1217
    EDDIAG:  cpu time   65.4053: real time   65.4066
  RMM-DIIS:  cpu time  177.3356: real time  177.3387
    ORTHCH:  cpu time   12.8458: real time   12.8457
       DOS:  cpu time    0.0014: real time    0.0014
    CHARGE:  cpu time   24.0640: real time   24.0637
    MIXING:  cpu time    0.4443: real time    0.4443
    --------------------------------------------
      LOOP:  cpu time  293.0612: real time  293.0660

 eigenvalue-minimisations  :   728
 total energy-change (2. order) :-0.1785017E+00  (-0.5486249E+01)
 number of electron     559.9999855 magnetization 
 augmentation part      240.5333476 magnetization 

 Broyden mixing:
  rms(total) = 0.22852E+01    rms(broyden)= 0.22850E+01
  rms(prec ) = 0.26666E+01
  weight for this iteration     100.00

 eigenvalues of (default mixing * dielectric matrix)
  average eigenvalue GAMMA=   0.3216
  0.3216

 Free energy of the ion-electron system (eV)
  ---------------------------------------------------
  alpha Z        PSCENC =        75.25431677
  Ewald energy   TEWEN  =    138322.51412561
  -Hartree energ DENC   =   -182094.31429927
  -exchange      EXHF   =         0.00000000
  -V(xc)+E(xc)   XCENC  =     -1697.31008368
  PAW double counting   =     45627.75592517   -42126.63615990
  entropy T*S    EENTRO =        -0.12392276
  eigenvalues    EBANDS =     -3373.20677234
  atomic energy  EATOM  =     45086.50549395
  Solvation  Ediel_sol  =         0.00000000
  ---------------------------------------------------
  free energy    TOTEN  =      -179.56137644 eV

  energy without entropy =     -179.43745368  energy(sigma->0) =     -179.53039575


--------------------------------------------------------------------------------------------------------




--------------------------------------- Iteration      1(   7)  ---------------------------------------


    POTLOK:  cpu time   12.5074: real time   12.5095
    SETDIJ:  cpu time    0.1306: real time    0.1306
    EDDIAG:  cpu time   65.1645: real time   65.1642
  RMM-DIIS:  cpu time  207.4314: real time  207.4309
    ORTHCH:  cpu time   12.7861: real time   12.7859
       DOS:  cpu time    0.0014: real time    0.0014
    CHARGE:  cpu time   23.2897: real time   23.2894
    MIXING:  cpu time    0.4619: real time    0.4619
    --------------------------------------------
      LOOP:  cpu time  321.7729: real time  321.7738

 eigenvalue-minimisations  :   862
 total energy-change (2. order) :-0.2515949E+01  (-0.1894358E+01)
 number of electron     559.9999798 magnetization 
 augmentation part      240.2969700 magnetization 

 Broyden mixing:
  rms(total) = 0.22431E+01    rms(broyden)= 0.22428E+01
  rms(prec ) = 0.27719E+01
  weight for this iteration     100.00

 eigenvalues of (default mixing * dielectric matrix)
  average eigenvalue GAMMA=   0.2993
  0.4528  0.1458

 Free energy of the ion-electron system (eV)
  ---------------------------------------------------
  alpha Z        PSCENC =        75.25431677
  Ewald energy   TEWEN  =    138322.51412561
  -Hartree energ DENC   =   -182172.87703581
  -exchange      EXHF   =         0.00000000
  -V(xc)+E(xc)   XCENC  =     -1697.49357636
  PAW double counting   =     45686.76794149   -42183.22679711
  entropy T*S    EENTRO =        -0.08094707
  eigenvalues    EBANDS =     -3299.44084681
  atomic energy  EATOM  =     45086.50549395
  Solvation  Ediel_sol  =         0.00000000
  ---------------------------------------------------
  free energy    TOTEN  =      -182.07732533 eV

  energy without entropy =     -181.99637826  energy(sigma->0) =     -182.05708857


--------------------------------------------------------------------------------------------------------




--------------------------------------- Iteration      1(   8)  ---------------------------------------


    POTLOK:  cpu time   11.8430: real time   11.8435
    SETDIJ:  cpu time    0.1160: real time    0.1160
    EDDIAG:  cpu time   63.3706: real time   63.3712
  RMM-DIIS:  cpu time  191.8458: real time  191.8471
    ORTHCH:  cpu time   12.6631: real time   12.6629
       DOS:  cpu time    0.0014: real time    0.0014
    CHARGE:  cpu time   23.5078: real time   23.5075
    MIXING:  cpu time    0.4855: real time    0.4855
    --------------------------------------------
      LOOP:  cpu time  303.8331: real time  303.8350

 eigenvalue-minimisations  :   807
 total energy-change (2. order) :-0.1070238E+01  (-0.6333587E+00)
 number of electron     559.9999811 magnetization 
 augmentation part      240.1318309 magnetization 

 Broyden mixing:
  rms(total) = 0.23605E+01    rms(broyden)= 0.23602E+01
  rms(prec ) = 0.27762E+01
  weight for this iteration     100.00

 eigenvalues of (default mixing * dielectric matrix)
  average eigenvalue GAMMA=   0.2988
  0.6189  0.1387  0.1387

 Free energy of the ion-electron system (eV)
  ---------------------------------------------------
  alpha Z        PSCENC =        75.25431677
  Ewald energy   TEWEN  =    138322.51412561
  -Hartree energ DENC   =   -182215.50408853
  -exchange      EXHF   =         0.00000000
  -V(xc)+E(xc)   XCENC  =     -1697.55232618
  PAW double counting   =     45736.64554626   -42230.95973151
  entropy T*S    EENTRO =        -0.23770982
  eigenvalues    EBANDS =     -3259.81319037
  atomic energy  EATOM  =     45086.50549395
  Solvation  Ediel_sol  =         0.00000000
  ---------------------------------------------------
  free energy    TOTEN  =      -183.14756382 eV

  energy without entropy =     -182.90985400  energy(sigma->0) =     -183.08813637


--------------------------------------------------------------------------------------------------------




--------------------------------------- Iteration      1(   9)  ---------------------------------------


    POTLOK:  cpu time   12.0791: real time   12.0808
    SETDIJ:  cpu time    0.1157: real time    0.1157
    EDDIAG:  cpu time   64.1086: real time   64.1080
  RMM-DIIS:  cpu time  176.4954: real time  176.4980
    ORTHCH:  cpu time   12.5571: real time   12.5570
       DOS:  cpu time    0.0014: real time    0.0014
    CHARGE:  cpu time   23.2973: real time   23.2970
    MIXING:  cpu time    0.5031: real time    0.5031
    --------------------------------------------
      LOOP:  cpu time  289.1576: real time  289.1609

 eigenvalue-minimisations  :   733
 total energy-change (2. order) : 0.1374702E+01  (-0.5019896E+00)
 number of electron     559.9999811 magnetization 
 augmentation part      240.9733608 magnetization 

 Broyden mixing:
  rms(total) = 0.24929E+01    rms(broyden)= 0.24925E+01
  rms(prec ) = 0.29776E+01
  weight for this iteration     100.00

 eigenvalues of (default mixing * dielectric matrix)
  average eigenvalue GAMMA=   0.2836
  0.7252  0.1545  0.1545  0.1001

 Free energy of the ion-electron system (eV)
  ---------------------------------------------------
  alpha Z        PSCENC =        75.25431677
  Ewald energy   TEWEN  =    138322.51412561
  -Hartree energ DENC   =   -182235.01751405
  -exchange      EXHF   =         0.00000000
  -V(xc)+E(xc)   XCENC  =     -1697.55083702
  PAW double counting   =     45793.61766586   -42285.46523626
  entropy T*S    EENTRO =        -0.00160097
  eigenvalues    EBANDS =     -3241.62927569
  atomic energy  EATOM  =     45086.50549395
  Solvation  Ediel_sol  =         0.00000000
  ---------------------------------------------------
  free energy    TOTEN  =      -181.77286179 eV

  energy without entropy =     -181.77126083  energy(sigma->0) =     -181.77246155


--------------------------------------------------------------------------------------------------------




--------------------------------------- Iteration      1(  10)  ---------------------------------------


    POTLOK:  cpu time   11.6410: real time   11.6436
    SETDIJ:  cpu time    0.1153: real time    0.1153
    EDDIAG:  cpu time   63.4126: real time   63.4127
  RMM-DIIS:  cpu time  176.2299: real time  176.2316
    ORTHCH:  cpu time   12.3184: real time   12.3183
       DOS:  cpu time    0.0014: real time    0.0014
    CHARGE:  cpu time   23.0060: real time   23.0056
    MIXING:  cpu time    0.5278: real time    0.5278
    --------------------------------------------
      LOOP:  cpu time  287.2526: real time  287.2564

 eigenvalue-minimisations  :   742
 total energy-change (2. order) : 0.1611516E+01  (-0.2638258E+00)
 number of electron     559.9999807 magnetization 
 augmentation part      241.2719498 magnetization 

 Broyden mixing:
  rms(total) = 0.23953E+01    rms(broyden)= 0.23949E+01
  rms(prec ) = 0.28261E+01
  weight for this iteration     100.00

 eigenvalues of (default mixing * dielectric matrix)
  average eigenvalue GAMMA=   0.2609
  0.7801  0.1738  0.1738  0.0992  0.0776

 Free energy of the ion-electron system (eV)
  ---------------------------------------------------
  alpha Z        PSCENC =        75.25431677
  Ewald energy   TEWEN  =    138322.51412561
  -Hartree energ DENC   =   -182261.00846103
  -exchange      EXHF   =         0.00000000
  -V(xc)+E(xc)   XCENC  =     -1697.42745212
  PAW double counting   =     45834.58338236   -42324.70375562
  entropy T*S    EENTRO =        -0.03323391
  eigenvalues    EBANDS =     -3215.84576174
  atomic energy  EATOM  =     45086.50549395
  Solvation  Ediel_sol  =         0.00000000
  ---------------------------------------------------
  free energy    TOTEN  =      -180.16134573 eV

  energy without entropy =     -180.12811182  energy(sigma->0) =     -180.15303725


--------------------------------------------------------------------------------------------------------




--------------------------------------- Iteration      1(  11)  ---------------------------------------


    POTLOK:  cpu time   11.3398: real time   11.3403
    SETDIJ:  cpu time    0.1137: real time    0.1137
    EDDIAG:  cpu time   62.6173: real time   62.6174
  RMM-DIIS:  cpu time  174.2299: real time  174.2298
    ORTHCH:  cpu time   12.5390: real time   12.5388
       DOS:  cpu time    0.0014: real time    0.0014
    CHARGE:  cpu time   23.3975: real time   23.3972
    MIXING:  cpu time    0.5646: real time    0.5646
    --------------------------------------------
      LOOP:  cpu time  284.8033: real time  284.8032

 eigenvalue-minimisations  :   739
 total energy-change (2. order) : 0.2034631E+01  (-0.1783998E+00)
 number of electron     559.9999832 magnetization 
 augmentation part      241.5447625 magnetization 

 Broyden mixing:
  rms(total) = 0.15421E+01    rms(broyden)= 0.15418E+01
  rms(prec ) = 0.17478E+01
  weight for this iteration     100.00

 eigenvalues of (default mixing * dielectric matrix)
  average eigenvalue GAMMA=   0.2625
  0.8838  0.1981  0.1981  0.1261  0.0843  0.0843

 Free energy of the ion-electron system (eV)
  ---------------------------------------------------
  alpha Z        PSCENC =        75.25431677
  Ewald energy   TEWEN  =    138322.51412561
  -Hartree energ DENC   =   -182279.25341425
  -exchange      EXHF   =         0.00000000
  -V(xc)+E(xc)   XCENC  =     -1697.31623681
  PAW double counting   =     45862.64162619   -42351.49287867
  entropy T*S    EENTRO =        -0.19028730
  eigenvalues    EBANDS =     -3196.78946066
  atomic energy  EATOM  =     45086.50549395
  Solvation  Ediel_sol  =         0.00000000
  ---------------------------------------------------
  free energy    TOTEN  =      -178.12671518 eV

  energy without entropy =     -177.93642788  energy(sigma->0) =     -178.07914335


--------------------------------------------------------------------------------------------------------




--------------------------------------- Iteration      1(  12)  ---------------------------------------


    POTLOK:  cpu time   11.8462: real time   11.8468
    SETDIJ:  cpu time    0.1156: real time    0.1156
    EDDIAG:  cpu time   63.6270: real time   63.6293
  RMM-DIIS:  cpu time  170.9463: real time  170.9652
    ORTHCH:  cpu time   12.6443: real time   12.6447
       DOS:  cpu time    0.0014: real time    0.0014
    CHARGE:  cpu time   23.0540: real time   23.0546
    MIXING:  cpu time    0.5814: real time    0.5814
    --------------------------------------------
      LOOP:  cpu time  282.8162: real time  282.8392

 eigenvalue-minimisations  :   723
 total energy-change (2. order) : 0.1364524E+01  (-0.1759190E+00)
 number of electron     559.9999833 magnetization 
 augmentation part      241.7361927 magnetization 

 Broyden mixing:
  rms(total) = 0.15181E+01    rms(broyden)= 0.15178E+01
  rms(prec ) = 0.17982E+01
  weight for this iteration     100.00

 eigenvalues of (default mixing * dielectric matrix)
  average eigenvalue GAMMA=   0.2645
  0.9535  0.2488  0.2488  0.1153  0.1153  0.1028  0.0670

 Free energy of the ion-electron system (eV)
  ---------------------------------------------------
  alpha Z        PSCENC =        75.25431677
  Ewald energy   TEWEN  =    138322.51412561
  -Hartree energ DENC   =   -182301.19235413
  -exchange      EXHF   =         0.00000000
  -V(xc)+E(xc)   XCENC  =     -1697.01877084
  PAW double counting   =     45906.77881121   -42393.53828231
  entropy T*S    EENTRO =        -0.04357016
  eigenvalues    EBANDS =     -3176.02196175
  atomic energy  EATOM  =     45086.50549395
  Solvation  Ediel_sol  =         0.00000000
  ---------------------------------------------------
  free energy    TOTEN  =      -176.76219164 eV

  energy without entropy =     -176.71862148  energy(sigma->0) =     -176.75129910


--------------------------------------------------------------------------------------------------------




--------------------------------------- Iteration      1(  13)  ---------------------------------------


    POTLOK:  cpu time   11.4134: real time   11.4159
    SETDIJ:  cpu time    0.1141: real time    0.1141
    EDDIAG:  cpu time   62.6054: real time   62.6110
  RMM-DIIS:  cpu time  171.7827: real time  171.8024
    ORTHCH:  cpu time   12.6623: real time   12.6639
       DOS:  cpu time    0.0014: real time    0.0014
    CHARGE:  cpu time   23.3569: real time   23.3567
    MIXING:  cpu time    0.6265: real time    0.6265
    --------------------------------------------
      LOOP:  cpu time  282.5629: real time  282.5920

 eigenvalue-minimisations  :   719
 total energy-change (2. order) : 0.5511392E+00  (-0.1116917E+00)
 number of electron     559.9999805 magnetization 
 augmentation part      241.6478012 magnetization 

 Broyden mixing:
  rms(total) = 0.13847E+01    rms(broyden)= 0.13845E+01
  rms(prec ) = 0.15682E+01
  weight for this iteration     100.00

 eigenvalues of (default mixing * dielectric matrix)
  average eigenvalue GAMMA=   0.2955
  1.1405  0.4096  0.2953  0.1283  0.1283  0.1069  0.0920  0.0633

 Free energy of the ion-electron system (eV)
  ---------------------------------------------------
  alpha Z        PSCENC =        75.25431677
  Ewald energy   TEWEN  =    138322.51412561
  -Hartree energ DENC   =   -182329.49527195
  -exchange      EXHF   =         0.00000000
  -V(xc)+E(xc)   XCENC  =     -1696.69819099
  PAW double counting   =     45944.26104926   -42429.16881763
  entropy T*S    EENTRO =        -0.05526428
  eigenvalues    EBANDS =     -3149.32849320
  atomic energy  EATOM  =     45086.50549395
  Solvation  Ediel_sol  =         0.00000000
  ---------------------------------------------------
  free energy    TOTEN  =      -176.21105246 eV

  energy without entropy =     -176.15578818  energy(sigma->0) =     -176.19723639


--------------------------------------------------------------------------------------------------------




--------------------------------------- Iteration      1(  14)  ---------------------------------------


    POTLOK:  cpu time   11.7370: real time   11.7391
    SETDIJ:  cpu time    0.1151: real time    0.1151
    EDDIAG:  cpu time   63.2395: real time   63.2396
  RMM-DIIS:  cpu time  168.7412: real time  168.7435
    ORTHCH:  cpu time   12.5977: real time   12.5975
       DOS:  cpu time    0.0014: real time    0.0014
    CHARGE:  cpu time   23.4811: real time   23.4809
    MIXING:  cpu time    0.6738: real time    0.6738
    --------------------------------------------
      LOOP:  cpu time  280.5869: real time  280.5910

 eigenvalue-minimisations  :   713
 total energy-change (2. order) :-0.2960505E+00  (-0.1418576E+00)
 number of electron     559.9999811 magnetization 
 augmentation part      241.3215512 magnetization 

 Broyden mixing:
  rms(total) = 0.16737E+01    rms(broyden)= 0.16734E+01
  rms(prec ) = 0.19926E+01
  weight for this iteration     100.00

 eigenvalues of (default mixing * dielectric matrix)
  average eigenvalue GAMMA=   0.3103
  1.2944  0.6144  0.2296  0.1534  0.1534  0.1046  0.1046  0.0713  0.0672

 Free energy of the ion-electron system (eV)
  ---------------------------------------------------
  alpha Z        PSCENC =        75.25431677
  Ewald energy   TEWEN  =    138322.51412561
  -Hartree energ DENC   =   -182384.15644114
  -exchange      EXHF   =         0.00000000
  -V(xc)+E(xc)   XCENC  =     -1695.88926566
  PAW double counting   =     46025.22134608   -42505.97422580
  entropy T*S    EENTRO =        -0.02928852
  eigenvalues    EBANDS =     -3099.95316427
  atomic energy  EATOM  =     45086.50549395
  Solvation  Ediel_sol  =         0.00000000
  ---------------------------------------------------
  free energy    TOTEN  =      -176.50710298 eV

  energy without entropy =     -176.47781446  energy(sigma->0) =     -176.49978085


--------------------------------------------------------------------------------------------------------




--------------------------------------- Iteration      1(  15)  ---------------------------------------


    POTLOK:  cpu time   11.9256: real time   11.9277
    SETDIJ:  cpu time    0.1163: real time    0.1163
    EDDIAG:  cpu time   63.4834: real time   63.4830
  RMM-DIIS:  cpu time  171.1452: real time  171.1480
    ORTHCH:  cpu time   12.6183: real time   12.6182
       DOS:  cpu time    0.0015: real time    0.0015
    CHARGE:  cpu time   23.4941: real time   23.4938
    MIXING:  cpu time    0.7135: real time    0.7135
    --------------------------------------------
      LOOP:  cpu time  283.4979: real time  283.5020

 eigenvalue-minimisations  :   723
 total energy-change (2. order) : 0.1592891E+00  (-0.8867850E-01)
 number of electron     559.9999813 magnetization 
 augmentation part      241.1025355 magnetization 

 Broyden mixing:
  rms(total) = 0.16011E+01    rms(broyden)= 0.16009E+01
  rms(prec ) = 0.19030E+01
  weight for this iteration     100.00

 eigenvalues of (default mixing * dielectric matrix)
  average eigenvalue GAMMA=   0.3102
  1.4085  0.7047  0.1841  0.1841  0.1912  0.1090  0.1090  0.0818  0.0698  0.0598

 Free energy of the ion-electron system (eV)
  ---------------------------------------------------
  alpha Z        PSCENC =        75.25431677
  Ewald energy   TEWEN  =    138322.51412561
  -Hartree energ DENC   =   -182420.67148943
  -exchange      EXHF   =         0.00000000
  -V(xc)+E(xc)   XCENC  =     -1695.38454726
  PAW double counting   =     46072.80686840   -42551.06520298
  entropy T*S    EENTRO =        -0.05787606
  eigenvalues    EBANDS =     -3066.24950285
  atomic energy  EATOM  =     45086.50549395
  Solvation  Ediel_sol  =         0.00000000
  ---------------------------------------------------
  free energy    TOTEN  =      -176.34781385 eV

  energy without entropy =     -176.28993779  energy(sigma->0) =     -176.33334483


--------------------------------------------------------------------------------------------------------




--------------------------------------- Iteration      1(  16)  ---------------------------------------


    POTLOK:  cpu time   11.8629: real time   11.8651
    SETDIJ:  cpu time    0.1161: real time    0.1161
    EDDIAG:  cpu time   63.3898: real time   63.3978
  RMM-DIIS:  cpu time  170.8360: real time  170.8592
    ORTHCH:  cpu time   12.5698: real time   12.5711
       DOS:  cpu time    0.0014: real time    0.0014
    CHARGE:  cpu time   23.3260: real time   23.3285
    MIXING:  cpu time    0.7442: real time    0.7442
    --------------------------------------------
      LOOP:  cpu time  282.8462: real time  282.8835

 eigenvalue-minimisations  :   722
 total energy-change (2. order) : 0.2749828E+00  (-0.6385982E-01)
 number of electron     559.9999817 magnetization 
 augmentation part      241.0001187 magnetization 

 Broyden mixing:
  rms(total) = 0.15212E+01    rms(broyden)= 0.15209E+01
  rms(prec ) = 0.17780E+01
  weight for this iteration     100.00

 eigenvalues of (default mixing * dielectric matrix)
  average eigenvalue GAMMA=   0.3164
  1.5397  0.7845  0.2528  0.2528  0.1210  0.1210  0.1013  0.1013  0.0838  0.0608
  0.0608

 Free energy of the ion-electron system (eV)
  ---------------------------------------------------
  alpha Z        PSCENC =        75.25431677
  Ewald energy   TEWEN  =    138322.51412561
  -Hartree energ DENC   =   -182445.12984889
  -exchange      EXHF   =         0.00000000
  -V(xc)+E(xc)   XCENC  =     -1695.05615476
  PAW double counting   =     46101.98907600   -42578.61056563
  entropy T*S    EENTRO =        -0.01425857
  eigenvalues    EBANDS =     -3043.52501550
  atomic energy  EATOM  =     45086.50549395
  Solvation  Ediel_sol  =         0.00000000
  ---------------------------------------------------
  free energy    TOTEN  =      -176.07283102 eV

  energy without entropy =     -176.05857245  energy(sigma->0) =     -176.06926638


--------------------------------------------------------------------------------------------------------




--------------------------------------- Iteration      1(  17)  ---------------------------------------


    POTLOK:  cpu time   11.9032: real time   11.9076
    SETDIJ:  cpu time    0.1171: real time    0.1171
    EDDIAG:  cpu time   63.2831: real time   63.2931
  RMM-DIIS:  cpu time  169.5211: real time  169.5353
    ORTHCH:  cpu time   12.8002: real time   12.8016
       DOS:  cpu time    0.0015: real time    0.0015
    CHARGE:  cpu time   23.8567: real time   23.8593
    MIXING:  cpu time    0.8015: real time    0.8015
    --------------------------------------------
      LOOP:  cpu time  282.2844: real time  282.3170

 eigenvalue-minimisations  :   712
 total energy-change (2. order) : 0.5501948E+00  (-0.5330606E-01)
 number of electron     559.9999833 magnetization 
 augmentation part      241.0280577 magnetization 

 Broyden mixing:
  rms(total) = 0.11275E+01    rms(broyden)= 0.11272E+01
  rms(prec ) = 0.12923E+01
  weight for this iteration     100.00

 eigenvalues of (default mixing * dielectric matrix)
  average eigenvalue GAMMA=   0.3215
  1.6215  0.8961  0.2941  0.2941  0.1300  0.1300  0.1055  0.0984  0.0984  0.0676
  0.0610  0.0610

 Free energy of the ion-electron system (eV)
  ---------------------------------------------------
  alpha Z        PSCENC =        75.25431677
  Ewald energy   TEWEN  =    138322.51412561
  -Hartree energ DENC   =   -182461.82809469
  -exchange      EXHF   =         0.00000000
  -V(xc)+E(xc)   XCENC  =     -1694.79820470
  PAW double counting   =     46122.56404194   -42597.85258284
  entropy T*S    EENTRO =        -0.00203932
  eigenvalues    EBANDS =     -3027.87969294
  atomic energy  EATOM  =     45086.50549395
  Solvation  Ediel_sol  =         0.00000000
  ---------------------------------------------------
  free energy    TOTEN  =      -175.52263620 eV

  energy without entropy =     -175.52059689  energy(sigma->0) =     -175.52212637


--------------------------------------------------------------------------------------------------------




--------------------------------------- Iteration      1(  18)  ---------------------------------------


    POTLOK:  cpu time   12.3841: real time   12.3869
    SETDIJ:  cpu time    0.1173: real time    0.1173
    EDDIAG:  cpu time   64.3963: real time   64.3986
  RMM-DIIS:  cpu time  166.7700: real time  166.7735
    ORTHCH:  cpu time   12.6216: real time   12.6216
       DOS:  cpu time    0.0014: real time    0.0014
    CHARGE:  cpu time   23.3623: real time   23.3623
    MIXING:  cpu time    0.8289: real time    0.8290
    --------------------------------------------
      LOOP:  cpu time  280.4820: real time  280.4906

 eigenvalue-minimisations  :   703
 total energy-change (2. order) : 0.2085039E+00  (-0.3979395E-01)
 number of electron     559.9999836 magnetization 
 augmentation part      241.0676843 magnetization 

 Broyden mixing:
  rms(total) = 0.10927E+01    rms(broyden)= 0.10925E+01
  rms(prec ) = 0.12613E+01
  weight for this iteration     100.00

 eigenvalues of (default mixing * dielectric matrix)
  average eigenvalue GAMMA=   0.3234
  1.6934  0.9461  0.3435  0.3435  0.1447  0.1447  0.1134  0.1134  0.0888  0.0888
  0.0643  0.0643  0.0553

 Free energy of the ion-electron system (eV)
  ---------------------------------------------------
  alpha Z        PSCENC =        75.25431677
  Ewald energy   TEWEN  =    138322.51412561
  -Hartree energ DENC   =   -182479.12365342
  -exchange      EXHF   =         0.00000000
  -V(xc)+E(xc)   XCENC  =     -1694.60658637
  PAW double counting   =     46135.05603596   -42609.26515741
  entropy T*S    EENTRO =         0.03399761
  eigenvalues    EBANDS =     -3011.68270497
  atomic energy  EATOM  =     45086.50549395
  Solvation  Ediel_sol  =         0.00000000
  ---------------------------------------------------
  free energy    TOTEN  =      -175.31413226 eV

  energy without entropy =     -175.34812987  energy(sigma->0) =     -175.32263166


--------------------------------------------------------------------------------------------------------




--------------------------------------- Iteration      1(  19)  ---------------------------------------


    POTLOK:  cpu time   11.8070: real time   11.8096
    SETDIJ:  cpu time    0.1146: real time    0.1146
    EDDIAG:  cpu time   63.0049: real time   63.0061
  RMM-DIIS:  cpu time  167.0798: real time  167.0833
    ORTHCH:  cpu time   12.6995: real time   12.7011
       DOS:  cpu time    0.0015: real time    0.0015
    CHARGE:  cpu time   23.5849: real time   23.5848
    MIXING:  cpu time    0.8869: real time    0.8869
    --------------------------------------------
      LOOP:  cpu time  279.1790: real time  279.1880

 eigenvalue-minimisations  :   704
 total energy-change (2. order) : 0.2100708E+00  (-0.3047266E-01)
 number of electron     559.9999829 magnetization 
 augmentation part      241.1505000 magnetization 

 Broyden mixing:
  rms(total) = 0.81486E+00    rms(broyden)= 0.81471E+00
  rms(prec ) = 0.93265E+00
  weight for this iteration     100.00

 eigenvalues of (default mixing * dielectric matrix)
  average eigenvalue GAMMA=   0.3374
  1.7152  1.1988  0.3874  0.3874  0.1692  0.1692  0.1189  0.1189  0.0942  0.0942
  0.0839  0.0660  0.0660  0.0541

 Free energy of the ion-electron system (eV)
  ---------------------------------------------------
  alpha Z        PSCENC =        75.25431677
  Ewald energy   TEWEN  =    138322.51412561
  -Hartree energ DENC   =   -182489.31333238
  -exchange      EXHF   =         0.00000000
  -V(xc)+E(xc)   XCENC  =     -1694.51892541
  PAW double counting   =     46137.91827551   -42611.52592088
  entropy T*S    EENTRO =        -0.01211889
  eigenvalues    EBANDS =     -3001.92597580
  atomic energy  EATOM  =     45086.50549395
  Solvation  Ediel_sol  =         0.00000000
  ---------------------------------------------------
  free energy    TOTEN  =      -175.10406151 eV

  energy without entropy =     -175.09194263  energy(sigma->0) =     -175.10103179


--------------------------------------------------------------------------------------------------------




--------------------------------------- Iteration      1(  20)  ---------------------------------------


    POTLOK:  cpu time   12.0389: real time   12.0421
    SETDIJ:  cpu time    0.1157: real time    0.1157
    EDDIAG:  cpu time   63.4839: real time   63.4845
  RMM-DIIS:  cpu time  168.1636: real time  168.1665
    ORTHCH:  cpu time   12.6867: real time   12.6866
       DOS:  cpu time    0.0014: real time    0.0014
    CHARGE:  cpu time   23.5312: real time   23.5312
    MIXING:  cpu time    0.9475: real time    0.9475
    --------------------------------------------
      LOOP:  cpu time  280.9689: real time  280.9755

 eigenvalue-minimisations  :   708
 total energy-change (2. order) : 0.4193521E-01  (-0.2814466E-01)
 number of electron     559.9999827 magnetization 
 augmentation part      241.1522658 magnetization 

 Broyden mixing:
  rms(total) = 0.83865E+00    rms(broyden)= 0.83847E+00
  rms(prec ) = 0.97745E+00
  weight for this iteration     100.00

 eigenvalues of (default mixing * dielectric matrix)
  average eigenvalue GAMMA=   0.3443
  1.7579  1.3569  0.5042  0.2774  0.2774  0.1285  0.1285  0.1379  0.1379  0.1012
  0.1012  0.0674  0.0674  0.0672  0.0540

 Free energy of the ion-electron system (eV)
  ---------------------------------------------------
  alpha Z        PSCENC =        75.25431677
  Ewald energy   TEWEN  =    138322.51412561
  -Hartree energ DENC   =   -182513.22475838
  -exchange      EXHF   =         0.00000000
  -V(xc)+E(xc)   XCENC  =     -1694.32199131
  PAW double counting   =     46139.86336320   -42612.37349343
  entropy T*S    EENTRO =        -0.06079187
  eigenvalues    EBANDS =     -2979.21839085
  atomic energy  EATOM  =     45086.50549395
  Solvation  Ediel_sol  =         0.00000000
  ---------------------------------------------------
  free energy    TOTEN  =      -175.06212630 eV

  energy without entropy =     -175.00133443  energy(sigma->0) =     -175.04692833


--------------------------------------------------------------------------------------------------------




--------------------------------------- Iteration      1(  21)  ---------------------------------------


    POTLOK:  cpu time   11.9718: real time   11.9748
    SETDIJ:  cpu time    0.1156: real time    0.1156
    EDDIAG:  cpu time   63.5861: real time   63.5886
  RMM-DIIS:  cpu time  167.9048: real time  167.9062
    ORTHCH:  cpu time   12.7642: real time   12.7640
       DOS:  cpu time    0.0015: real time    0.0015
    CHARGE:  cpu time   23.6993: real time   23.6989
    MIXING:  cpu time    0.9950: real time    0.9949
    --------------------------------------------
      LOOP:  cpu time  281.0382: real time  281.0445

 eigenvalue-minimisations  :   706
 total energy-change (2. order) : 0.1259486E-01  (-0.2251759E-01)
 number of electron     559.9999829 magnetization 
 augmentation part      241.1660344 magnetization 

 Broyden mixing:
  rms(total) = 0.92288E+00    rms(broyden)= 0.92277E+00
  rms(prec ) = 0.10577E+01
  weight for this iteration     100.00

 eigenvalues of (default mixing * dielectric matrix)
  average eigenvalue GAMMA=   0.3480
  1.9005  1.3364  0.6194  0.3203  0.3203  0.1370  0.1370  0.1243  0.1243  0.1088
  0.1088  0.0813  0.0662  0.0662  0.0637  0.0536

 Free energy of the ion-electron system (eV)
  ---------------------------------------------------
  alpha Z        PSCENC =        75.25431677
  Ewald energy   TEWEN  =    138322.51412561
  -Hartree energ DENC   =   -182527.93503965
  -exchange      EXHF   =         0.00000000
  -V(xc)+E(xc)   XCENC  =     -1694.14102887
  PAW double counting   =     46140.17403959   -42611.93981197
  entropy T*S    EENTRO =        -0.05080281
  eigenvalues    EBANDS =     -2965.43082406
  atomic energy  EATOM  =     45086.50549395
  Solvation  Ediel_sol  =         0.00000000
  ---------------------------------------------------
  free energy    TOTEN  =      -175.04953144 eV

  energy without entropy =     -174.99872864  energy(sigma->0) =     -175.03683074


--------------------------------------------------------------------------------------------------------




--------------------------------------- Iteration      1(  22)  ---------------------------------------


    POTLOK:  cpu time   12.1424: real time   12.1454
    SETDIJ:  cpu time    0.1173: real time    0.1173
    EDDIAG:  cpu time   63.8158: real time   63.8152
  RMM-DIIS:  cpu time  168.8572: real time  168.8564
    ORTHCH:  cpu time   12.7758: real time   12.7756
       DOS:  cpu time    0.0014: real time    0.0014
    CHARGE:  cpu time   24.0220: real time   24.0216
    MIXING:  cpu time    1.0809: real time    1.0809
    --------------------------------------------
      LOOP:  cpu time  282.8129: real time  282.8139

 eigenvalue-minimisations  :   708
 total energy-change (2. order) : 0.1152984E+00  (-0.1554944E-01)
 number of electron     559.9999826 magnetization 
 augmentation part      241.1466187 magnetization 

 Broyden mixing:
  rms(total) = 0.76112E+00    rms(broyden)= 0.76099E+00
  rms(prec ) = 0.87055E+00
  weight for this iteration     100.00

 eigenvalues of (default mixing * dielectric matrix)
  average eigenvalue GAMMA=   0.3481
  2.0001  1.3477  0.7111  0.3387  0.3387  0.1498  0.1498  0.1200  0.1200  0.1302
  0.0933  0.0933  0.0778  0.0535  0.0649  0.0649  0.0633

 Free energy of the ion-electron system (eV)
  ---------------------------------------------------
  alpha Z        PSCENC =        75.25431677
  Ewald energy   TEWEN  =    138322.51412561
  -Hartree energ DENC   =   -182540.29515187
  -exchange      EXHF   =         0.00000000
  -V(xc)+E(xc)   XCENC  =     -1693.96633721
  PAW double counting   =     46143.17929729   -42614.31654214
  entropy T*S    EENTRO =        -0.06847561
  eigenvalues    EBANDS =     -2953.74095987
  atomic energy  EATOM  =     45086.50549395
  Solvation  Ediel_sol  =         0.00000000
  ---------------------------------------------------
  free energy    TOTEN  =      -174.93423308 eV

  energy without entropy =     -174.86575747  energy(sigma->0) =     -174.91711418


--------------------------------------------------------------------------------------------------------




--------------------------------------- Iteration      1(  23)  ---------------------------------------


    POTLOK:  cpu time   12.4559: real time   12.4587
    SETDIJ:  cpu time    0.1171: real time    0.1171
    EDDIAG:  cpu time   64.8273: real time   64.8269
  RMM-DIIS:  cpu time  170.9239: real time  170.9236
    ORTHCH:  cpu time   12.5306: real time   12.5304
       DOS:  cpu time    0.0015: real time    0.0015
    CHARGE:  cpu time   23.6342: real time   23.6349
    MIXING:  cpu time    1.1097: real time    1.1097
    --------------------------------------------
      LOOP:  cpu time  285.6002: real time  285.6028

 eigenvalue-minimisations  :   704
 total energy-change (2. order) : 0.1703883E+00  (-0.1395377E-01)
 number of electron     559.9999825 magnetization 
 augmentation part      241.1075926 magnetization 

 Broyden mixing:
  rms(total) = 0.46604E+00    rms(broyden)= 0.46588E+00
  rms(prec ) = 0.52979E+00
  weight for this iteration     100.00

 eigenvalues of (default mixing * dielectric matrix)
  average eigenvalue GAMMA=   0.3503
  2.0579  1.4146  0.7313  0.3448  0.3448  0.2488  0.1497  0.1497  0.1248  0.1248
[...]
 -0.007  -0.012   0.004   0.004   0.006  -0.006  -0.012   0.004
 -0.011  -0.021   0.006   0.007   0.009  -0.011  -0.020   0.006
 -0.015  -0.005   0.013   0.000   0.022  -0.014  -0.005   0.012
  0.000  -0.023  -0.006  -0.015  -0.000   0.000  -0.022  -0.006
 -0.022   0.000   0.009  -0.005  -0.016  -0.022   0.000   0.008
 -0.017  -0.006   0.015   0.000   0.027  -0.017  -0.006   0.015
  0.000  -0.027  -0.007  -0.018  -0.000   0.000  -0.027  -0.007
 -0.027   0.000   0.010  -0.006  -0.019  -0.026   0.000   0.010
 total augmentation occupancy for first ion, spin component:           1
  1.535  -0.029   0.005   0.016   0.024   0.076  -0.008  -0.002   0.036  -0.010   0.092  -0.032   0.012   0.001   0.002  -0.019
 -0.029   1.399   0.029   0.071  -0.002  -0.007   0.072   0.011  -0.014  -0.007   0.225  -0.067   0.019   0.002   0.003  -0.006
  0.005   0.029   1.541   0.002   0.002  -0.002   0.012   0.074  -0.012   0.017  -0.052   0.018  -0.003  -0.007  -0.005   0.016
  0.016   0.071   0.002   1.337   0.043   0.033  -0.013  -0.012   0.092  -0.023  -0.078   0.020  -0.001  -0.008  -0.004   0.001
  0.024  -0.002   0.002   0.043   1.439  -0.010  -0.008   0.016  -0.022   0.068  -0.095   0.031  -0.003  -0.009  -0.010   0.026
  0.076  -0.007  -0.002   0.033  -0.010   0.217   0.019  -0.002  -0.045   0.004  -0.048   0.002   0.017  -0.010   0.034  -0.004
 -0.008   0.072   0.012  -0.013  -0.008   0.019   0.263  -0.023  -0.003   0.006  -0.110   0.007  -0.001   0.051  -0.010  -0.000
 -0.002   0.011   0.074  -0.012   0.016  -0.002  -0.023   0.215   0.014  -0.020   0.028  -0.001  -0.012   0.009  -0.018   0.003
  0.036  -0.014  -0.012   0.092  -0.022  -0.045  -0.003   0.014   0.261   0.007   0.043  -0.004  -0.009   0.036   0.004   0.000
 -0.010  -0.007   0.017  -0.023   0.068   0.004   0.006  -0.020   0.007   0.259   0.046  -0.002  -0.038   0.002   0.049   0.007
  0.092   0.225  -0.052  -0.078  -0.095  -0.048  -0.110   0.028   0.043   0.046   0.951  -0.141   0.084   0.014   0.064  -0.013
 -0.032  -0.067   0.018   0.020   0.031   0.002   0.007  -0.001  -0.004  -0.002  -0.141   0.023  -0.014  -0.003  -0.010   0.003
  0.012   0.019  -0.003  -0.001  -0.003   0.017  -0.001  -0.012  -0.009  -0.038   0.084  -0.014   0.029  -0.008  -0.004  -0.003
  0.001   0.002  -0.007  -0.008  -0.009  -0.010   0.051   0.009   0.036   0.002   0.014  -0.003  -0.008   0.035   0.004   0.000
  0.002   0.003  -0.005  -0.004  -0.010   0.034  -0.010  -0.018   0.004   0.049   0.064  -0.010  -0.004   0.004   0.035  -0.000
 -0.019  -0.006   0.016   0.001   0.026  -0.004  -0.000   0.003   0.000   0.007  -0.013   0.003  -0.003   0.000  -0.000   0.001
  0.001  -0.028  -0.007  -0.018   0.001   0.001  -0.008  -0.001  -0.006  -0.000  -0.003   0.001   0.000  -0.003  -0.000   0.000
 -0.028   0.001   0.012  -0.005  -0.019  -0.006   0.001   0.003  -0.001  -0.007  -0.008   0.001  -0.000  -0.000  -0.003   0.000


------------------------ aborting loop because EDIFF is reached ----------------------------------------


    CHARGE:  cpu time   24.7764: real time   24.7788
    FORLOC:  cpu time    6.6928: real time    6.6939
    FORNL :  cpu time   63.8176: real time   63.8222
    STRESS:  cpu time  195.4457: real time  195.4442
    FORCOR:  cpu time   21.6474: real time   21.6472
    FORHAR:  cpu time    9.4916: real time    9.4915
    MIXING:  cpu time    3.7736: real time    3.7736
    OFIELD:  cpu time    0.0000: real time    0.0000

  FORCE on cell =-STRESS in cart. coord.  units (eV):
  Direction    XX          YY          ZZ          XY          YZ          ZX
  --------------------------------------------------------------------------------------
  Alpha Z    75.25432    75.25432    75.25432
  Ewald   44111.76630 44143.72464 50066.91738    -1.66778  -271.13598    23.62018
  Hartree 59043.62975 59069.22500 64579.19423    -1.28145  -236.15742    20.49744
  E(xc)   -2905.45046 -2905.36513 -2902.36913    -0.00670    -0.39857     0.03598
  Local  ************************************     2.87522   502.39988   -43.67974
  n-local  -880.77081  -881.06561  -893.69767     0.02686     1.45999    -0.12538
  augment  4105.37553  4105.24089  4100.65603     0.01485     0.70743    -0.06597
  Kinetic  7815.20133  7814.57484  7781.49186     0.06009     3.94175    -0.35099
  Fock        0.00000     0.00000     0.00000     0.00000     0.00000     0.00000
  -------------------------------------------------------------------------------------
  Total    -113.24150  -113.45950  -114.51934     0.02108     0.81709    -0.06848
  in kB      -6.71974    -6.73268    -6.79557     0.00125     0.04849    -0.00406
  external pressure =       -6.75 kB  Pullay stress =        0.00 kB


 VOLUME and BASIS-vectors are now :
 -----------------------------------------------------------------------------
  energy-cutoff  :      400.00
  volume of cell :    27000.00
      direct lattice vectors                 reciprocal lattice vectors
    30.000000000  0.000000000  0.000000000     0.033333333  0.000000000  0.000000000
     0.000000000 30.000000000  0.000000000     0.000000000  0.033333333  0.000000000
     0.000000000  0.000000000 30.000000000     0.000000000  0.000000000  0.033333333

  length of vectors
    30.000000000 30.000000000 30.000000000     0.033333333  0.033333333  0.033333333


 FORCES acting on ions
    electron-ion (+dipol)            ewald-force                    non-local-force                 convergence-correction
 -----------------------------------------------------------------------------------------------
   0.395E+03 0.974E+03 0.423E+03   -.393E+03 -.971E+03 -.422E+03   -.150E+01 -.183E+01 -.203E+00   -.899E-03 -.101E-02 -.106E-02
   -.974E+03 -.395E+03 0.422E+03   0.971E+03 0.393E+03 -.422E+03   0.183E+01 0.150E+01 -.212E+00   0.252E-03 0.104E-02 0.295E-03
   -.395E+03 0.974E+03 0.423E+03   0.393E+03 -.971E+03 -.422E+03   0.150E+01 -.183E+01 -.202E+00   0.195E-02 -.139E-02 -.288E-02
   0.974E+03 -.395E+03 0.422E+03   -.971E+03 0.393E+03 -.422E+03   -.183E+01 0.150E+01 -.214E+00   0.275E-02 0.545E-02 0.358E-02
   0.278E-01 0.587E+03 0.968E+03   -.290E-01 -.587E+03 -.964E+03   -.114E-03 -.303E+00 -.236E+01   0.147E-02 -.861E-03 -.326E-02
   0.816E+00 0.643E+03 -.909E+03   -.817E+00 -.642E+03 0.906E+03   0.124E-02 -.758E-01 0.235E+01   -.533E-03 0.274E-02 0.242E-02
   0.589E-01 0.114E+04 0.961E+01   -.583E-01 -.114E+04 -.958E+01   -.135E-04 -.310E+01 -.241E-01   -.430E-03 -.252E-02 0.175E-02
   0.114E+04 -.604E+00 0.851E+01   -.113E+04 0.601E+00 -.849E+01   -.310E+01 -.808E-03 -.160E-01   0.127E-02 0.249E-02 0.369E-02
   -.114E+04 -.612E+00 0.867E+01   0.113E+04 0.611E+00 -.865E+01   0.310E+01 -.687E-03 -.172E-01   0.208E-02 0.476E-03 0.260E-02
   0.492E-01 -.114E+04 0.773E+01   -.476E-01 0.113E+04 -.772E+01   0.930E-04 0.311E+01 -.911E-02   -.162E-02 -.417E-02 0.940E-03
   -.579E+03 0.579E+03 0.815E+03   0.577E+03 -.577E+03 -.812E+03   0.156E+01 -.155E+01 -.220E+01   0.102E-02 -.851E-03 -.239E-02
   -.608E+03 0.604E+03 -.784E+03   0.606E+03 -.602E+03 0.781E+03   0.153E+01 -.154E+01 0.221E+01   0.196E-03 0.234E-02 0.354E-02
   0.579E+03 -.580E+03 0.815E+03   -.577E+03 0.577E+03 -.812E+03   -.155E+01 0.156E+01 -.220E+01   0.369E-02 0.502E-02 0.373E-02
   0.600E+03 -.603E+03 -.792E+03   -.597E+03 0.600E+03 0.789E+03   -.155E+01 0.155E+01 0.222E+01   0.598E-02 0.514E-03 -.227E-02
   0.579E+03 0.579E+03 0.815E+03   -.577E+03 -.577E+03 -.812E+03   -.156E+01 -.155E+01 -.220E+01   -.123E-02 -.138E-02 -.315E-02
   0.608E+03 0.603E+03 -.785E+03   -.606E+03 -.601E+03 0.781E+03   -.154E+01 -.154E+01 0.221E+01   -.153E-02 0.163E-02 0.774E-03
   -.579E+03 -.580E+03 0.815E+03   0.577E+03 0.577E+03 -.812E+03   0.155E+01 0.156E+01 -.220E+01   -.454E-02 0.386E-02 -.135E-02
   -.600E+03 -.603E+03 -.792E+03   0.597E+03 0.601E+03 0.788E+03   0.155E+01 0.155E+01 0.222E+01   -.703E-02 0.161E-02 -.166E-03
   0.400E+03 0.987E+03 -.397E+03   -.397E+03 -.984E+03 0.396E+03   -.153E+01 -.183E+01 0.211E+00   -.301E-02 0.215E-03 0.345E-02
   -.985E+03 -.400E+03 -.400E+03   0.983E+03 0.398E+03 0.399E+03   0.183E+01 0.152E+01 0.202E+00   -.519E-02 0.436E-02 0.650E-02
   -.322E+03 0.322E+03 0.462E+03   0.323E+03 -.322E+03 -.463E+03   -.360E+00 0.360E+00 0.527E+00   0.371E-03 0.740E-03 -.163E-02
   0.974E+03 0.394E+03 0.422E+03   -.971E+03 -.392E+03 -.422E+03   -.183E+01 -.150E+01 -.206E+00   -.180E-02 0.281E-02 0.390E-02
   -.395E+03 -.974E+03 0.422E+03   0.393E+03 0.971E+03 -.421E+03   0.150E+01 0.183E+01 -.215E+00   -.823E-02 0.254E-02 0.242E-02
   -.399E+03 0.987E+03 -.397E+03   0.397E+03 -.984E+03 0.396E+03   0.153E+01 -.183E+01 0.212E+00   -.135E-03 0.538E-04 0.428E-02
   0.985E+03 -.400E+03 -.400E+03   -.982E+03 0.398E+03 0.400E+03   -.183E+01 0.152E+01 0.202E+00   0.369E-02 0.130E-02 -.403E-03
   -.974E+03 0.395E+03 0.422E+03   0.971E+03 -.392E+03 -.422E+03   0.183E+01 -.150E+01 -.205E+00   0.126E-02 -.185E-02 -.202E-02
   0.395E+03 -.974E+03 0.422E+03   -.393E+03 0.971E+03 -.421E+03   -.150E+01 0.183E+01 -.216E+00   0.321E-03 -.151E-02 0.138E-02
   0.322E+03 0.322E+03 0.462E+03   -.323E+03 -.322E+03 -.463E+03   0.360E+00 0.360E+00 0.526E+00   -.122E-02 0.490E-02 0.227E-02
   0.105E+00 0.645E+03 0.175E+02   -.103E+00 -.646E+03 -.174E+02   -.108E-03 0.727E+00 -.451E-01   -.163E-02 0.171E-02 0.294E-02
   -.588E+03 -.325E+00 0.967E+03   0.587E+03 0.325E+00 -.964E+03   0.301E+00 0.681E-03 -.236E+01   -.830E-04 -.131E-02 -.325E-02
   -.636E+03 -.730E+01 -.921E+03   0.636E+03 0.731E+01 0.918E+03   0.143E+00 -.112E-01 0.238E+01   -.383E-02 0.634E-02 0.168E-02
   0.588E+03 -.330E+00 0.967E+03   -.587E+03 0.323E+00 -.964E+03   -.300E+00 0.577E-03 -.236E+01   0.133E-03 0.625E-02 0.376E-03
   0.635E+03 -.699E+01 -.923E+03   -.635E+03 0.700E+01 0.919E+03   -.154E+00 -.106E-01 0.238E+01   0.170E-02 0.431E-02 -.172E-02
   0.766E+03 0.765E+03 0.131E+02   -.764E+03 -.763E+03 -.131E+02   -.114E+01 -.114E+01 -.409E-03   -.325E-02 0.243E-02 0.461E-02
   -.765E+03 -.766E+03 0.115E+02   0.763E+03 0.764E+03 -.116E+02   0.113E+01 0.113E+01 0.214E-01   -.636E-02 0.473E-02 0.688E-02
   -.766E+03 0.765E+03 0.133E+02   0.764E+03 -.763E+03 -.133E+02   0.114E+01 -.114E+01 -.261E-02   0.120E-02 -.168E-04 0.974E-03
   0.765E+03 -.766E+03 0.114E+02   -.763E+03 0.764E+03 -.115E+02   -.113E+01 0.113E+01 0.234E-01   0.461E-02 0.777E-03 0.875E-03
   0.326E-01 -.371E+00 0.107E+04   -.308E-01 0.356E+00 -.107E+04   -.593E-03 0.663E-02 -.163E+01   -.889E-03 0.491E-02 -.247E-03
   0.327E+01 -.378E+02 -.871E+03   -.319E+01 0.368E+02 0.875E+03   -.493E-01 0.567E+00 -.223E+01   0.804E-03 0.886E-02 -.501E-03
   0.987E+03 0.397E+03 -.399E+03   -.984E+03 -.395E+03 0.398E+03   -.183E+01 -.152E+01 0.215E+00   -.187E-03 0.334E-02 0.481E-03
   -.398E+03 -.985E+03 -.401E+03   0.396E+03 0.983E+03 0.401E+03   0.152E+01 0.183E+01 0.206E+00   -.404E-02 -.389E-02 0.491E-02
   -.334E+03 0.330E+03 -.412E+03   0.334E+03 -.330E+03 0.413E+03   -.326E+00 0.314E+00 -.449E+00   -.104E-02 0.631E-02 0.622E-02
   0.322E+03 -.323E+03 0.462E+03   -.323E+03 0.323E+03 -.462E+03   0.364E+00 -.365E+00 0.517E+00   -.165E-02 0.101E-01 0.311E-02
   0.334E+03 0.330E+03 -.413E+03   -.334E+03 -.330E+03 0.414E+03   0.323E+00 0.308E+00 -.458E+00   -.271E-02 0.607E-02 0.298E-02
   -.987E+03 0.397E+03 -.398E+03   0.984E+03 -.395E+03 0.398E+03   0.183E+01 -.152E+01 0.215E+00   -.959E-03 0.223E-02 0.505E-02
   0.398E+03 -.985E+03 -.401E+03   -.396E+03 0.982E+03 0.401E+03   -.152E+01 0.183E+01 0.205E+00   0.448E-02 -.445E-02 0.162E-02
   -.322E+03 -.323E+03 0.462E+03   0.323E+03 0.323E+03 -.462E+03   -.364E+00 -.364E+00 0.518E+00   -.735E-02 0.609E-02 0.171E-02
   0.645E+03 -.110E+01 0.160E+02   -.646E+03 0.110E+01 -.160E+02   0.728E+00 0.948E-03 -.289E-01   -.544E-03 0.689E-02 0.456E-02
   -.645E+03 -.111E+01 0.162E+02   0.646E+03 0.111E+01 -.162E+02   -.728E+00 0.104E-02 -.314E-01   -.270E-02 0.344E-02 0.535E-02
   0.332E-01 -.588E+03 0.967E+03   -.272E-01 0.587E+03 -.964E+03   -.160E-04 0.298E+00 -.237E+01   -.608E-02 0.511E-02 0.353E-02
   0.487E+00 -.631E+03 -.931E+03   -.490E+00 0.630E+03 0.927E+03   0.598E-03 0.206E+00 0.240E+01   0.223E-02 0.246E-03 -.299E-02
   0.132E+00 -.148E+01 0.218E+02   -.128E+00 0.148E+01 -.218E+02   0.153E-03 -.169E-02 -.234E-01   -.430E-02 0.885E-02 0.519E-02
   0.332E+03 -.335E+03 -.419E+03   -.332E+03 0.335E+03 0.419E+03   0.247E+00 -.262E+00 -.581E+00   0.219E-02 0.654E-02 0.286E-02
   -.332E+03 -.335E+03 -.418E+03   0.332E+03 0.336E+03 0.419E+03   -.252E+00 -.269E+00 -.569E+00   -.491E-02 0.827E-02 0.816E-02
   0.931E-01 -.646E+03 0.149E+02   -.887E-01 0.647E+03 -.149E+02   -.463E-04 -.731E+00 -.152E-01   -.449E-02 0.454E-02 0.406E-02
   -.153E+01 0.172E+02 -.244E+03   0.136E+01 -.153E+02 0.218E+03   0.981E-01 -.116E+01 0.205E+02   0.183E-03 0.174E-02 -.835E-03
   -.385E+01 0.443E+02 -.746E+03   0.421E+01 -.484E+02 0.811E+03   -.337E+00 0.386E+01 -.611E+02   0.151E-03 0.176E-02 -.174E-02
 -----------------------------------------------------------------------------------------------
   0.350E+00 -.364E+01 0.444E+02   0.464E-12 -.189E-11 -.205E-11   -.308E+00 0.349E+01 -.445E+02   -.504E-01 0.141E+00 0.938E-01
 
 
 POSITION                                       TOTAL-FORCE (eV/Angst)
 -----------------------------------------------------------------------------------
     13.37281      9.84801     12.50759         0.699688      1.109460      0.288722
     20.15199     16.62719     12.50759        -1.108638     -0.699127      0.290490
     16.62719      9.84801     12.50759        -0.699559      1.109480      0.288692
      9.84801     16.62719     12.50759         1.108966     -0.699162      0.290776
     15.00000     11.47521     10.20639         0.000234      0.406446      1.281175
     15.00000     11.47521     19.79360        -0.000137      0.376898     -1.325208
     15.00000      8.28283     15.00000         0.000257      1.509425      0.008279
      8.28283     15.00000     15.00000         1.510919     -0.000912      0.005909
     21.71717     15.00000     15.00000        -1.510247     -0.000959      0.006194
     15.00000     21.71717     15.00000         0.000221     -1.511803      0.003952
     18.35858     11.64142     10.25025        -0.754292      0.753331      1.073652
     18.35858     11.64142     19.74975        -0.744871      0.747143     -1.075772
     11.64142     18.35858     10.25025         0.753223     -0.754016      1.074217
     11.64142     18.35858     19.74975         0.751728     -0.750679     -1.073377
     11.64142     11.64142     10.25025         0.754609      0.753133      1.073618
     11.64142     11.64142     19.74975         0.745479      0.747735     -1.075481
     18.35858     18.35858     10.25025        -0.752696     -0.753960      1.073912
     18.35858     18.35858     19.74975        -0.751442     -0.750361     -1.073804
     13.37281      9.84801     17.49241         0.702993      1.103938     -0.291866
     20.15199     16.62719     17.49241        -1.106564     -0.702510     -0.288401
     16.73751     13.26249     12.54279         0.113759     -0.113057     -0.153785
      9.84801     13.37281     12.50759         1.107936      0.700174      0.289683
     16.62719     20.15199     12.50759        -0.700114     -1.107456      0.291124
     16.62719      9.84801     17.49241        -0.702417      1.103474     -0.292328
      9.84801     16.62719     17.49241         1.106861     -0.702418     -0.288371
     20.15199     13.37281     12.50759        -1.107945      0.700259      0.289492
     13.37281     20.15199     12.50759         0.700380     -1.107739      0.291243
     13.26249     13.26249     12.54279        -0.113465     -0.112982     -0.153701
     15.00000     11.52498     15.00000         0.000116     -0.215409     -0.001996
     18.52479     15.00000     10.20639        -0.405458     -0.000736      1.281261
     18.52479     15.00000     19.79360        -0.375437      0.004791     -1.330842
     11.47521     15.00000     10.20640         0.405574     -0.000589      1.281135
     11.47521     15.00000     19.79360         0.376834      0.004558     -1.330329
     11.49535     11.49535     15.00000         0.820360      0.821863     -0.011540
     18.50465     18.50465     15.00000        -0.817346     -0.815618     -0.019266
     18.50465     11.49535     15.00000        -0.820609      0.822100     -0.010648
     11.49535     18.50465     15.00000         0.817284     -0.815585     -0.019824
     15.00000     15.00000     10.04368         0.000445     -0.003616      1.185243
     15.00000     15.00000     19.95633         0.035699     -0.407661      1.138652
      9.84801     13.37281     17.49241         1.103744      0.700361     -0.293126
     16.62719     20.15199     17.49241        -0.699996     -1.105746     -0.289504
     16.73751     13.26249     17.45721         0.138064     -0.129071      0.132061
     13.26249     16.73751     12.54279        -0.113314      0.113603     -0.153059
     13.26249     13.26249     17.45721        -0.136663     -0.126141      0.133501
     20.15199     13.37281     17.49241        -1.103077      0.700405     -0.293339
     13.37281     20.15199     17.49241         0.700472     -1.105739     -0.289212
     16.73751     16.73751     12.54279         0.113445      0.113529     -0.153057
     11.52498     15.00000     15.00000        -0.215314      0.000822     -0.000930
     18.47502     15.00000     15.00000         0.215565      0.000745     -0.001108
     15.00000     18.52480     10.20639         0.000109     -0.404001      1.281720
     15.00000     18.52480     19.79360        -0.000017     -0.383576     -1.326690
     15.00000     15.00000     15.00000         0.000052      0.000799      0.011422
     13.26249     16.73751     17.45721        -0.088656      0.099937      0.162582
     16.73751     16.73751     17.45721         0.092435      0.105261      0.158940
     15.00000     18.47502     15.00000         0.000062      0.215038      0.000339
     15.04014     14.53658     22.12611        -0.066951      0.735432     -5.456372
     15.04648     14.46339     23.25172         0.017715     -0.279511      3.384952
 -----------------------------------------------------------------------------------
    total drift:                               -0.007944     -0.008092      0.001939


--------------------------------------------------------------------------------------------------------



  FREE ENERGIE OF THE ION-ELECTRON SYSTEM (eV)
  ---------------------------------------------------
  free  energy   TOTEN  =      -174.61119021 eV

  energy  without entropy=     -174.54919412  energy(sigma->0) =     -174.59569119
 


--------------------------------------------------------------------------------------------------------


    POTLOK:  cpu time   13.4935: real time   13.4933


--------------------------------------------------------------------------------------------------------


     LOOP+:  cpu time16882.0856: real time16883.0677
    4ORBIT:  cpu time    0.0000: real time    0.0000

 total amount of memory used by VASP MPI-rank0  5486941. kBytes
=======================================================================

   base      :      30000. kBytes
   nonlr-proj:      17126. kBytes
   fftplans  :     924480. kBytes
   grid      :    1872000. kBytes
   one-center:        886. kBytes
   wavefun   :    2642449. kBytes
 
  
  
 General timing and accounting informations for this job:
 ========================================================
  
                  Total CPU time used (sec):    16954.078
                            User time (sec):    16016.584
                          System time (sec):      937.494
                         Elapsed time (sec):    16955.091
  
                   Maximum memory used (kb):     7178664.
                   Average memory used (kb):           0.
  
                          Minor page faults:    806119568
                          Major page faults:            0
                 Voluntary context switches:          568
