  57  57   0   0
  0.4736842E+03  0.3000000E-08  0.3000000E-08  0.3000000E-08  0.5000000E-15
  1.000000000000000E-004
  CAR 
 6_Pd100_top_free_z(O)                   
      1.43365312    -31.37406108  301     -4.11976455      1.00000000
    -31.374  0.0000E+00  0.0000E+00
    -31.265  0.0000E+00  0.0000E+00
    -31.155  0.0000E+00  0.0000E+00
    -31.046  0.6396E-27  0.6995E-28
    -30.937  0.3588E-23  0.3924E-24
    -30.827  0.1089E-19  0.1191E-20
    -30.718  0.1781E-16  0.1949E-17
    -30.609  0.1565E-13  0.1713E-14
    -30.499  0.7357E-11  0.8063E-12
    -30.390  0.1831E-08  0.2011E-09
    -30.280  0.2389E-06  0.2633E-07
    -30.171  0.1603E-04  0.1780E-05
    -30.062  0.5357E-03  0.6037E-04
    -29.952  0.8316E-02  0.9698E-03
    -29.843  0.4896E-01  0.6324E-02
    -29.734 -0.6111E-02  0.5655E-02
    -29.624 -0.6540E+00 -0.6586E-01
    -29.515  0.1973E+00 -0.4429E-01
    -29.406  0.6557E+01  0.6727E+00
    -29.296  0.9702E+01  0.1734E+01
    -29.187  0.3375E+01  0.2103E+01
    -29.078 -0.7176E+00  0.2024E+01
    -28.968 -0.3134E+00  0.1990E+01
    -28.859  0.6042E-01  0.1997E+01
    -28.749  0.2677E-01  0.2000E+01
    -28.640  0.2882E-02  0.2000E+01
    -28.531  0.1325E-03  0.2000E+01
    -28.421  0.2936E-05  0.2000E+01
    -28.312  0.3293E-07  0.2000E+01
    -28.203  0.1917E-09  0.2000E+01
    -28.093  0.5888E-12  0.2000E+01
    -27.984  0.0000E+00  0.2000E+01
    -27.875  0.0000E+00  0.2000E+01
    -27.765  0.0000E+00  0.2000E+01
    -27.656  0.0000E+00  0.2000E+01
    -27.546  0.0000E+00  0.2000E+01
    -27.437  0.0000E+00  0.2000E+01
    -27.328  0.0000E+00  0.2000E+01
    -27.218  0.0000E+00  0.2000E+01
    -27.109  0.0000E+00  0.2000E+01
    -27.000  0.0000E+00  0.2000E+01
    -26.890  0.0000E+00  0.2000E+01
    -26.781  0.0000E+00  0.2000E+01
    -26.672  0.0000E+00  0.2000E+01
    -26.562  0.0000E+00  0.2000E+01
    -26.453  0.0000E+00  0.2000E+01
    -26.344  0.0000E+00  0.2000E+01
    -26.234  0.0000E+00  0.2000E+01
    -26.125  0.0000E+00  0.2000E+01
    -26.015  0.0000E+00  0.2000E+01
    -25.906  0.0000E+00  0.2000E+01
    -25.797  0.0000E+00  0.2000E+01
    -25.687  0.0000E+00  0.2000E+01
    -25.578  0.0000E+00  0.2000E+01
    -25.469  0.0000E+00  0.2000E+01
    -25.359  0.0000E+00  0.2000E+01
    -25.250  0.0000E+00  0.2000E+01
    -25.141  0.0000E+00  0.2000E+01
    -25.031  0.0000E+00  0.2000E+01
    -24.922  0.0000E+00  0.2000E+01
    -24.813  0.0000E+00  0.2000E+01
    -24.703  0.0000E+00  0.2000E+01
    -24.594  0.0000E+00  0.2000E+01
    -24.484  0.0000E+00  0.2000E+01
    -24.375  0.0000E+00  0.2000E+01
    -24.266  0.0000E+00  0.2000E+01
    -24.156  0.0000E+00  0.2000E+01
    -24.047  0.0000E+00  0.2000E+01
    -23.938  0.0000E+00  0.2000E+01
    -23.828  0.0000E+00  0.2000E+01
    -23.719  0.0000E+00  0.2000E+01
    -23.610  0.0000E+00  0.2000E+01
    -23.500  0.0000E+00  0.2000E+01
    -23.391  0.0000E+00  0.2000E+01
    -23.281  0.0000E+00  0.2000E+01
    -23.172  0.0000E+00  0.2000E+01
    -23.063  0.0000E+00  0.2000E+01
    -22.953  0.0000E+00  0.2000E+01
    -22.844  0.0000E+00  0.2000E+01
    -22.735  0.0000E+00  0.2000E+01
    -22.625  0.0000E+00  0.2000E+01
    -22.516  0.0000E+00  0.2000E+01
    -22.407  0.0000E+00  0.2000E+01
    -22.297  0.0000E+00  0.2000E+01
    -22.188  0.0000E+00  0.2000E+01
    -22.079  0.0000E+00  0.2000E+01
    -21.969  0.0000E+00  0.2000E+01
    -21.860  0.0000E+00  0.2000E+01
    -21.750  0.0000E+00  0.2000E+01
    -21.641  0.0000E+00  0.2000E+01
    -21.532  0.0000E+00  0.2000E+01
    -21.422  0.0000E+00  0.2000E+01
    -21.313  0.0000E+00  0.2000E+01
    -21.204  0.0000E+00  0.2000E+01
    -21.094  0.0000E+00  0.2000E+01
    -20.985  0.0000E+00  0.2000E+01
    -20.876  0.0000E+00  0.2000E+01
    -20.766  0.0000E+00  0.2000E+01
    -20.657  0.0000E+00  0.2000E+01
    -20.548  0.0000E+00  0.2000E+01
    -20.438  0.0000E+00  0.2000E+01
    -20.329  0.0000E+00  0.2000E+01
    -20.219  0.0000E+00  0.2000E+01
    -20.110  0.0000E+00  0.2000E+01
    -20.001  0.0000E+00  0.2000E+01
    -19.891  0.0000E+00  0.2000E+01
    -19.782  0.0000E+00  0.2000E+01
    -19.673  0.0000E+00  0.2000E+01
    -19.563  0.0000E+00  0.2000E+01
    -19.454  0.0000E+00  0.2000E+01
    -19.345  0.0000E+00  0.2000E+01
    -19.235  0.0000E+00  0.2000E+01
    -19.126  0.0000E+00  0.2000E+01
    -19.016  0.0000E+00  0.2000E+01
    -18.907  0.0000E+00  0.2000E+01
    -18.798  0.0000E+00  0.2000E+01
    -18.688  0.0000E+00  0.2000E+01
    -18.579  0.0000E+00  0.2000E+01
    -18.470  0.0000E+00  0.2000E+01
    -18.360  0.0000E+00  0.2000E+01
    -18.251  0.0000E+00  0.2000E+01
    -18.142  0.0000E+00  0.2000E+01
    -18.032  0.0000E+00  0.2000E+01
    -17.923  0.0000E+00  0.2000E+01
    -17.814  0.0000E+00  0.2000E+01
    -17.704  0.0000E+00  0.2000E+01
    -17.595  0.0000E+00  0.2000E+01
    -17.485  0.0000E+00  0.2000E+01
    -17.376  0.0000E+00  0.2000E+01
    -17.267  0.0000E+00  0.2000E+01
    -17.157  0.0000E+00  0.2000E+01
    -17.048  0.0000E+00  0.2000E+01
    -16.939  0.0000E+00  0.2000E+01
    -16.829  0.0000E+00  0.2000E+01
    -16.720  0.0000E+00  0.2000E+01
    -16.611  0.0000E+00  0.2000E+01
    -16.501  0.0000E+00  0.2000E+01
    -16.392  0.0000E+00  0.2000E+01
    -16.283  0.0000E+00  0.2000E+01
    -16.173  0.0000E+00  0.2000E+01
    -16.064  0.0000E+00  0.2000E+01
    -15.954  0.0000E+00  0.2000E+01
    -15.845  0.0000E+00  0.2000E+01
    -15.736  0.0000E+00  0.2000E+01
    -15.626  0.0000E+00  0.2000E+01
    -15.517  0.1068E-25  0.2000E+01
    -15.408  0.4929E-22  0.2000E+01
    -15.298  0.1229E-18  0.2000E+01
    -15.189  0.1650E-15  0.2000E+01
    -15.080  0.1188E-12  0.2000E+01
    -14.970  0.4569E-10  0.2000E+01
    -14.861  0.9272E-08  0.2000E+01
    -14.751  0.9813E-06  0.2000E+01
    -14.642  0.5299E-04  0.2000E+01
    -14.533  0.1402E-02  0.2000E+01
    -14.423  0.1655E-01  0.2002E+01
    -14.314  0.6256E-01  0.2009E+01
    -14.205 -0.1413E+00  0.1993E+01
    -14.095 -0.8092E+00  0.1905E+01
    -13.986  0.1691E+01  0.2090E+01
    -13.877  0.8642E+01  0.3035E+01
    -13.767  0.8300E+01  0.3943E+01
    -13.658  0.1355E+01  0.4091E+01
    -13.549 -0.7966E+00  0.4004E+01
    -13.439 -0.1091E+00  0.3992E+01
    -13.330  0.6085E-01  0.3998E+01
    -13.220  0.1465E-01  0.4000E+01
    -13.111  0.1176E-02  0.4000E+01
    -13.002  0.4251E-04  0.4000E+01
    -12.892  0.7554E-06  0.4000E+01
    -12.783  0.6888E-08  0.4000E+01
    -12.674  0.6514E-08  0.4000E+01
    -12.564  0.7862E-06  0.4000E+01
    -12.455  0.4894E-04  0.4000E+01
    -12.346  0.1509E-02  0.4000E+01
    -12.236  0.2135E-01  0.4003E+01
    -12.127  0.1093E+00  0.4014E+01
    -12.018 -0.8656E-01  0.4005E+01
    -11.908 -0.1457E+01  0.3846E+01
    -11.799  0.1267E+01  0.3984E+01
    -11.689  0.1469E+02  0.5591E+01
    -11.580  0.1867E+02  0.7633E+01
    -11.471  0.5228E+01  0.8205E+01
    -11.361 -0.1579E+01  0.8032E+01
    -11.252 -0.4677E+00  0.7981E+01
    -11.143  0.1272E+00  0.7995E+01
    -11.033  0.4402E-01  0.8000E+01
    -10.924  0.4269E-02  0.8000E+01
    -10.815  0.1805E-03  0.8000E+01
    -10.705  0.3706E-05  0.8000E+01
    -10.596  0.3864E-07  0.8000E+01
    -10.486  0.2126E-09  0.8000E+01
    -10.377  0.8233E-09  0.8000E+01
    -10.268  0.1186E-06  0.8000E+01
    -10.158  0.8820E-05  0.8000E+01
    -10.049  0.3288E-03  0.8000E+01
     -9.940  0.5780E-02  0.8001E+01
     -9.830  0.4058E-01  0.8005E+01
     -9.721  0.3021E-01  0.8008E+01
     -9.612 -0.5330E+00  0.7950E+01
     -9.502 -0.2645E+00  0.7921E+01
     -9.393  0.5405E+01  0.8512E+01
     -9.284  0.9965E+01  0.9602E+01
     -9.174  0.4503E+01  0.1009E+02
     -9.065 -0.5157E+00  0.1004E+02
     -8.955 -0.4350E+00  0.9991E+01
     -8.846  0.4802E-01  0.9996E+01
     -8.737  0.3425E-01  0.1000E+02
     -8.627  0.4299E-02  0.1000E+02
     -8.518  0.2226E-03  0.1000E+02
     -8.409  0.5491E-05  0.1000E+02
     -8.299  0.6818E-07  0.1000E+02
     -8.190  0.4382E-09  0.1000E+02
     -8.081  0.1482E-11  0.1000E+02
     -7.971  0.2040E-14  0.1000E+02
     -7.862  0.9249E-14  0.1000E+02
     -7.753  0.4577E-11  0.1000E+02
     -7.643  0.1200E-08  0.1000E+02
     -7.534  0.1650E-06  0.1000E+02
     -7.424  0.1170E-04  0.1000E+02
     -7.315  0.4143E-03  0.1000E+02
     -7.206  0.6874E-02  0.1000E+02
     -7.096  0.4453E-01  0.1001E+02
     -6.987  0.1520E-01  0.1001E+02
     -6.878 -0.5913E+00  0.9943E+01
     -6.768 -0.6535E-01  0.9936E+01
     -6.659  0.5986E+01  0.1059E+02
     -6.550  0.1005E+02  0.1169E+02
     -6.440  0.3788E+01  0.1210E+02
     -6.331 -0.2831E+01  0.1179E+02
     -6.221  0.2381E+01  0.1205E+02
     -6.112  0.2307E+02  0.1458E+02
     -6.003  0.2537E+02  0.1735E+02
     -5.893  0.7996E+01  0.1823E+02
     -5.784  0.2123E+02  0.2055E+02
     -5.675  0.6265E+02  0.2740E+02
     -5.565  0.1478E+03  0.4356E+02
     -5.456  0.2741E+03  0.7354E+02
     -5.347  0.3014E+03  0.1065E+03
     -5.237  0.2237E+03  0.1310E+03
     -5.128  0.2181E+03  0.1548E+03
     -5.019  0.3127E+03  0.1890E+03
     -4.909  0.3669E+03  0.2291E+03
     -4.800  0.3141E+03  0.2635E+03
     -4.690  0.3107E+03  0.2975E+03
     -4.581  0.4030E+03  0.3415E+03
     -4.472  0.4262E+03  0.3881E+03
     -4.362  0.4357E+03  0.4358E+03
     -4.253  0.5411E+03  0.4950E+03
     -4.144  0.5147E+03  0.5512E+03
     -4.034  0.2436E+03  0.5779E+03
     -3.925  0.3309E+02  0.5815E+03
     -3.816  0.1586E+02  0.5832E+03
     -3.706  0.3122E+02  0.5867E+03
     -3.597  0.1367E+02  0.5881E+03
     -3.488  0.1849E+02  0.5902E+03
     -3.378  0.2814E+02  0.5932E+03
     -3.269  0.7094E+01  0.5940E+03
     -3.159 -0.3915E+01  0.5936E+03
     -3.050  0.2960E+02  0.5968E+03
     -2.941  0.6705E+02  0.6042E+03
     -2.831  0.4740E+02  0.6093E+03
     -2.722  0.7022E+01  0.6101E+03
     -2.613  0.5213E+00  0.6102E+03
     -2.503  0.2283E+02  0.6127E+03
     -2.394  0.2922E+02  0.6159E+03
     -2.285  0.1337E+02  0.6173E+03
     -2.175  0.1211E+02  0.6186E+03
     -2.066  0.3110E+02  0.6221E+03
     -1.956  0.4606E+02  0.6271E+03
     -1.847  0.4877E+02  0.6324E+03
     -1.738  0.4154E+02  0.6370E+03
     -1.628  0.3891E+02  0.6412E+03
     -1.519  0.4290E+02  0.6459E+03
     -1.410  0.2952E+02  0.6491E+03
     -1.300  0.1263E+02  0.6505E+03
     -1.191  0.1846E+02  0.6525E+03
     -1.082  0.2318E+02  0.6551E+03
     -0.972  0.3425E+02  0.6588E+03
     -0.863  0.5536E+02  0.6649E+03
     -0.754  0.3968E+02  0.6692E+03
     -0.644  0.1223E+02  0.6706E+03
     -0.535  0.7637E+01  0.6714E+03
     -0.425  0.5721E+01  0.6720E+03
     -0.316  0.3755E+00  0.6721E+03
     -0.207 -0.5493E+00  0.6720E+03
     -0.097  0.9301E-02  0.6720E+03
      0.012  0.4995E-01  0.6720E+03
      0.121  0.8347E-02  0.6720E+03
      0.231  0.5362E-03  0.6720E+03
      0.340  0.1604E-04  0.6720E+03
      0.449  0.2389E-06  0.6720E+03
      0.559  0.1831E-08  0.6720E+03
      0.668  0.7356E-11  0.6720E+03
      0.777  0.1624E-13  0.6720E+03
      0.887  0.0000E+00  0.6720E+03
      0.996  0.0000E+00  0.6720E+03
      1.106  0.0000E+00  0.6720E+03
      1.215  0.0000E+00  0.6720E+03
      1.324  0.0000E+00  0.6720E+03
      1.434  0.0000E+00  0.6720E+03
