<?xml version="1.0" encoding="ISO-8859-1"?>
<modeling>
 <generator>
  <i name="program" type="string">vasp </i>
  <i name="version" type="string">5.4.4.18Apr17-6-g9f103f2a35  </i>
  <i name="subversion" type="string">(build Sep 03 2018 23:53:05) complex            parallel </i>
  <i name="platform" type="string">LinuxIFC </i>
  <i name="date" type="string">2021 12 02 </i>
  <i name="time" type="string">12:22:23 </i>
 </generator>
 <incar>
  <i type="string" name="SYSTEM"> 6_Pd100_top_free_z(O)</i>
  <i type="int" name="ISTART">     0</i>
  <i type="string" name="PREC">normal   			! encut=max(enmax), ngx,y,z</i>
  <i type="string" name="ALGO"> Fast     			! Mix RMM-DIIS and Dav</i>
  <i type="logical" name="ADDGRID"> F  </i>
  <i type="int" name="ISPIN">     1</i>
  <i type="int" name="ICHARG">     2</i>
  <i type="int" name="NELM">   100</i>
  <i type="int" name="NELMIN">     6</i>
  <i type="int" name="IBRION">     2</i>
  <i name="EDIFF">      0.00010000</i>
  <i name="EDIFFG">     -0.05000000</i>
  <i type="int" name="NSW">     0</i>
  <i type="int" name="ISIF">     2</i>
  <i type="int" name="ISYM">     2</i>
  <i name="ENCUT">    400.00000000</i>
  <i type="string" name="LREAL"> Auto     			! Auto or A projection done</i>
  <i type="int" name="ISMEAR">     2</i>
  <i name="SIGMA">      0.20000000</i>
  <i type="logical" name="LWAVE"> F  </i>
  <i type="logical" name="LCHARG"> F  </i>
  <v type="int" name="KPOINT_BSE">    -1     0     0     0</v>
  <i type="int" name="MAXMEM"> 10000</i>
  <i type="int" name="NELM">   100</i>
  <i type="string" name="GGA"> RP         			! Revised PBE</i>
 </incar>
 <structure name="primitive_cell" >
  <crystal>
   <varray name="basis" >
    <v>      30.00000000       0.00000000       0.00000000 </v>
    <v>       0.00000000      30.00000000       0.00000000 </v>
    <v>       0.00000000       0.00000000      30.00000000 </v>
   </varray>
   <i name="volume">  27000.00000000 </i>
   <varray name="rec_basis" >
    <v>       0.03333333       0.00000000       0.00000000 </v>
    <v>       0.00000000       0.03333333       0.00000000 </v>
    <v>       0.00000000       0.00000000       0.03333333 </v>
   </varray>
  </crystal>
  <varray name="positions" >
   <v>       0.44576020       0.32826710       0.41691983 </v>
   <v>      -0.44576020       0.32826710       0.41691983 </v>
   <v>      -0.50000000       0.38250690       0.34021317 </v>
   <v>      -0.50000000       0.27609440      -0.50000000 </v>
   <v>       0.38804720       0.38804720       0.34167483 </v>
   <v>      -0.50000000       0.38416601      -0.50000000 </v>
   <v>       0.44208300       0.44208300       0.41809300 </v>
   <v>       0.38317830       0.38317830      -0.50000000 </v>
   <v>      -0.44208300       0.44208300       0.41809300 </v>
   <v>       0.44576020       0.32826710      -0.41691977 </v>
   <v>       0.32826705       0.44576024       0.41691983 </v>
   <v>      -0.38804720       0.38804720       0.34167483 </v>
   <v>      -0.38317830       0.38317830      -0.50000000 </v>
   <v>      -0.50000000      -0.50000000       0.33478917 </v>
   <v>      -0.50000000      -0.50000000      -0.50000000 </v>
   <v>      -0.44576020       0.32826710      -0.41691977 </v>
   <v>       0.38250685      -0.49999995       0.34021317 </v>
   <v>       0.44208300       0.44208300      -0.41809297 </v>
   <v>       0.38416599      -0.49999998      -0.50000000 </v>
   <v>      -0.44208300       0.44208300      -0.41809297 </v>
   <v>       0.44208298      -0.44208298       0.41809300 </v>
   <v>       0.32826705       0.44576024      -0.41691977 </v>
   <v>      -0.49440750      -0.49547930       0.24416843 </v>
   <v>      -0.50000000       0.38250690      -0.34021320 </v>
   <v>       0.32826712      -0.44576022       0.41691983 </v>
   <v>      -0.38250685      -0.49999995       0.34021317 </v>
   <v>      -0.32826705       0.44576024       0.41691983 </v>
   <v>       0.27609443       0.49999998      -0.50000000 </v>
   <v>       0.38804720       0.38804720      -0.34167487 </v>
   <v>      -0.38416599      -0.49999998      -0.50000000 </v>
   <v>      -0.44208298      -0.44208298       0.41809300 </v>
   <v>      -0.49358590      -0.49481517       0.20658327 </v>
   <v>       0.44208298      -0.44208298      -0.41809297 </v>
   <v>      -0.38804720       0.38804720      -0.34167487 </v>
   <v>       0.38804722      -0.38804722       0.34167483 </v>
   <v>       0.38250685      -0.49999995      -0.34021320 </v>
   <v>       0.32826712      -0.44576022      -0.41691977 </v>
   <v>      -0.32826705       0.44576024      -0.41691977 </v>
   <v>       0.50000000      -0.38250681       0.34021317 </v>
   <v>      -0.50000000      -0.38416596      -0.50000000 </v>
   <v>      -0.44208298      -0.44208298      -0.41809297 </v>
   <v>      -0.50000000      -0.50000000      -0.33478913 </v>
   <v>       0.38317828      -0.38317828      -0.50000000 </v>
   <v>      -0.32826712      -0.44576022       0.41691983 </v>
   <v>      -0.27609443       0.49999998      -0.50000000 </v>
   <v>      -0.38804722      -0.38804722       0.34167483 </v>
   <v>      -0.38250685      -0.49999995      -0.34021320 </v>
   <v>       0.44576027      -0.32826707       0.41691983 </v>
   <v>      -0.38317828      -0.38317828      -0.50000000 </v>
   <v>      -0.32826712      -0.44576022      -0.41691977 </v>
   <v>      -0.44576027      -0.32826707       0.41691983 </v>
   <v>       0.38804722      -0.38804722      -0.34167487 </v>
   <v>      -0.50000000      -0.38250681      -0.34021320 </v>
   <v>       0.44576027      -0.32826707      -0.41691977 </v>
   <v>      -0.44576027      -0.32826707      -0.41691977 </v>
   <v>      -0.50000000      -0.27609445       0.50000000 </v>
   <v>      -0.38804722      -0.38804722      -0.34167487 </v>
  </varray>
 </structure>
 <varray name="primitive_index" >
  <v type="int" >        1 </v>
  <v type="int" >        3 </v>
  <v type="int" >        5 </v>
  <v type="int" >        7 </v>
  <v type="int" >       15 </v>
  <v type="int" >       29 </v>
  <v type="int" >       28 </v>
  <v type="int" >       34 </v>
  <v type="int" >       21 </v>
  <v type="int" >       19 </v>
  <v type="int" >       22 </v>
  <v type="int" >       11 </v>
  <v type="int" >       36 </v>
  <v type="int" >       38 </v>
  <v type="int" >       52 </v>
  <v type="int" >       24 </v>
  <v type="int" >       32 </v>
  <v type="int" >       44 </v>
  <v type="int" >       48 </v>
  <v type="int" >       42 </v>
  <v type="int" >       43 </v>
  <v type="int" >       40 </v>
  <v type="int" >       56 </v>
  <v type="int" >        6 </v>
  <v type="int" >        4 </v>
  <v type="int" >       30 </v>
  <v type="int" >       26 </v>
  <v type="int" >        8 </v>
  <v type="int" >       16 </v>
  <v type="int" >       49 </v>
  <v type="int" >       47 </v>
  <v type="int" >       57 </v>
  <v type="int" >       53 </v>
  <v type="int" >       12 </v>
  <v type="int" >       13 </v>
  <v type="int" >       33 </v>
  <v type="int" >       25 </v>
  <v type="int" >       45 </v>
  <v type="int" >       50 </v>
  <v type="int" >       55 </v>
  <v type="int" >       54 </v>
  <v type="int" >       39 </v>
  <v type="int" >       37 </v>
  <v type="int" >        2 </v>
  <v type="int" >        9 </v>
  <v type="int" >       17 </v>
  <v type="int" >       31 </v>
  <v type="int" >       27 </v>
  <v type="int" >       35 </v>
  <v type="int" >       20 </v>
  <v type="int" >       23 </v>
  <v type="int" >       14 </v>
  <v type="int" >       51 </v>
  <v type="int" >       46 </v>
  <v type="int" >       41 </v>
  <v type="int" >       10 </v>
  <v type="int" >       18 </v>
 </varray>
 <kpoints>
  <generation param="Monkhorst-Pack">
   <v type="int" name="divisions">       1        1        1 </v>
   <v name="usershift">      0.00000000       0.00000000       0.00000000 </v>
   <v name="genvec1">      1.00000000       0.00000000       0.00000000 </v>
   <v name="genvec2">      0.00000000       1.00000000       0.00000000 </v>
   <v name="genvec3">      0.00000000       0.00000000       1.00000000 </v>
   <v name="shift">      0.00000000       0.00000000       0.00000000 </v>
  </generation>
  <varray name="kpointlist" >
   <v>       0.00000000       0.00000000       0.00000000 </v>
  </varray>
  <varray name="weights" >
   <v>       1.00000000 </v>
  </varray>
 </kpoints>
 <parameters>
  <separator name="general" >
   <i type="string" name="SYSTEM">6_Pd100_top_free_z(O)</i>
   <i type="logical" name="LCOMPAT"> F  </i>
  </separator>
  <separator name="electronic" >
   <i type="string" name="PREC">normal</i>
   <i name="ENMAX">    400.00000000</i>
   <i name="ENAUG">    644.87300000</i>
   <i name="EDIFF">      0.00010000</i>
   <i type="int" name="IALGO">    68</i>
   <i type="int" name="IWAVPR">    10</i>
   <i type="int" name="NBANDS">   336</i>
   <i name="NELECT">    560.00000000</i>
   <i type="int" name="TURBO">     0</i>
   <i type="int" name="IRESTART">     0</i>
   <i type="int" name="NREBOOT">     0</i>
   <i type="int" name="NMIN">     0</i>
   <i name="EREF">      0.00000000</i>
   <separator name="electronic smearing" >
    <i type="int" name="ISMEAR">     2</i>
    <i name="SIGMA">      0.20000000</i>
    <i name="KSPACING">      0.50000000</i>
    <i type="logical" name="KGAMMA"> T  </i>
   </separator>
   <separator name="electronic projectors" >
    <i type="logical" name="LREAL"> T  </i>
    <v name="ROPT">     -0.00050000     -0.00050000     -0.00050000</v>
    <i type="int" name="LMAXPAW">  -100</i>
    <i type="int" name="LMAXMIX">     2</i>
    <i type="logical" name="NLSPLINE"> F  </i>
   </separator>
   <separator name="electronic startup" >
    <i type="int" name="ISTART">     0</i>
    <i type="int" name="ICHARG">     2</i>
    <i type="int" name="INIWAV">     1</i>
   </separator>
   <separator name="electronic spin" >
    <i type="int" name="ISPIN">     1</i>
    <i type="logical" name="LNONCOLLINEAR"> F  </i>
    <v name="MAGMOM">      1.00000000      1.00000000      1.00000000      1.00000000      1.00000000      1.00000000      1.00000000      1.00000000      1.00000000      1.00000000      1.00000000      1.00000000      1.00000000      1.00000000      1.00000000      1.00000000      1.00000000      1.00000000      1.00000000      1.00000000
      1.00000000      1.00000000      1.00000000      1.00000000      1.00000000      1.00000000      1.00000000      1.00000000      1.00000000      1.00000000      1.00000000      1.00000000      1.00000000      1.00000000      1.00000000      1.00000000      1.00000000      1.00000000      1.00000000      1.00000000
      1.00000000      1.00000000      1.00000000      1.00000000      1.00000000      1.00000000      1.00000000      1.00000000      1.00000000      1.00000000      1.00000000      1.00000000      1.00000000      1.00000000      1.00000000      1.00000000      1.00000000</v>
    <i name="NUPDOWN">     -1.00000000</i>
    <i type="logical" name="LSORBIT"> F  </i>
    <v name="SAXIS">      0.00000000      0.00000000      1.00000000</v>
    <i type="logical" name="LSPIRAL"> F  </i>
    <v name="QSPIRAL">      0.00000000      0.00000000      0.00000000</v>
    <i type="logical" name="LZEROZ"> F  </i>
   </separator>
   <separator name="electronic exchange-correlation" >
    <i type="logical" name="LASPH"> F  </i>
    <i type="logical" name="LMETAGGA"> F  </i>
   </separator>
   <separator name="electronic convergence" >
    <i type="int" name="NELM">   100</i>
    <i type="int" name="NELMDL">    -5</i>
    <i type="int" name="NELMIN">     6</i>
    <i name="ENINI">    400.00000000</i>
    <separator name="electronic convergence detail" >
     <i type="logical" name="LDIAG"> T  </i>
     <i type="logical" name="LSUBROT"> F  </i>
     <i name="WEIMIN">      0.00000000</i>
     <i name="EBREAK">      0.00000007</i>
     <i name="DEPER">      0.30000000</i>
     <i type="int" name="NRMM">     4</i>
     <i name="TIME">      0.40000000</i>
    </separator>
   </separator>
   <separator name="electronic mixer" >
    <i name="AMIX">      0.40000000</i>
    <i name="BMIX">      1.00000000</i>
    <i name="AMIN">      0.10000000</i>
    <i name="AMIX_MAG">      1.60000000</i>
    <i name="BMIX_MAG">      1.00000000</i>
    <separator name="electronic mixer details" >
     <i type="int" name="IMIX">     4</i>
     <i type="logical" name="MIXFIRST"> F  </i>
     <i type="int" name="MAXMIX">   -45</i>
     <i name="WC">    100.00000000</i>
     <i type="int" name="INIMIX">     1</i>
     <i type="int" name="MIXPRE">     1</i>
     <i type="int" name="MREMOVE">     5</i>
    </separator>
   </separator>
   <separator name="electronic dipolcorrection" >
    <i type="logical" name="LDIPOL"> F  </i>
    <i type="logical" name="LMONO"> F  </i>
    <i type="int" name="IDIPOL">     0</i>
    <i name="EPSILON">      1.00000000</i>
    <v name="DIPOL">   -100.00000000   -100.00000000   -100.00000000</v>
    <i name="EFIELD">      0.00000000</i>
   </separator>
  </separator>
  <separator name="grids" >
   <i type="int" name="NGX">   150</i>
   <i type="int" name="NGY">   150</i>
   <i type="int" name="NGZ">   150</i>
   <i type="int" name="NGXF">   300</i>
   <i type="int" name="NGYF">   300</i>
   <i type="int" name="NGZF">   300</i>
   <i type="logical" name="ADDGRID"> F  </i>
  </separator>
  <separator name="ionic" >
   <i type="int" name="NSW">     0</i>
   <i type="int" name="IBRION">    -1</i>
   <i type="int" name="MDALGO">     0</i>
   <i type="int" name="ISIF">     2</i>
   <i name="PSTRESS">      0.00000000</i>
   <i name="EDIFFG">     -0.05000000</i>
   <i type="int" name="NFREE">     1</i>
   <i name="POTIM">      0.50000000</i>
   <i name="SMASS">     -3.00000000</i>
   <i name="SCALEE">      1.00000000</i>
  </separator>
  <separator name="ionic md" >
   <i name="TEBEG">      0.00010000</i>
   <i name="TEEND">      0.00010000</i>
   <i type="int" name="NBLOCK">     1</i>
   <i type="int" name="KBLOCK">     1</i>
   <i type="int" name="NPACO">   256</i>
   <i name="APACO">     16.00000000</i>
  </separator>
  <separator name="symmetry" >
   <i type="int" name="ISYM">     2</i>
   <i name="SYMPREC">      0.00001000</i>
  </separator>
  <separator name="dos" >
   <i type="int" name="LORBIT">     0</i>
   <v name="RWIGS">     -1.00000000     -1.00000000     -1.00000000</v>
   <i type="int" name="NEDOS">   301</i>
   <i name="EMIN">     10.00000000</i>
   <i name="EMAX">    -10.00000000</i>
   <i name="EFERMI">      0.00000000</i>
  </separator>
  <separator name="writing" >
   <i type="int" name="NWRITE">     2</i>
   <i type="logical" name="LWAVE"> F  </i>
   <i type="logical" name="LDOWNSAMPLE"> F  </i>
   <i type="logical" name="LCHARG"> F  </i>
   <i type="logical" name="LPARD"> F  </i>
   <i type="logical" name="LVTOT"> F  </i>
   <i type="logical" name="LVHAR"> F  </i>
   <i type="logical" name="LELF"> F  </i>
   <i type="logical" name="LOPTICS"> F  </i>
   <v name="STM">      0.00000000      0.00000000      0.00000000      0.00000000      0.00000000      0.00000000      0.00000000</v>
  </separator>
  <separator name="performance" >
   <i type="int" name="NPAR">     1</i>
   <i type="int" name="NSIM">     4</i>
   <i type="int" name="NBLK">    -1</i>
   <i type="logical" name="LPLANE"> T  </i>
   <i type="logical" name="LSCALAPACK"> T  </i>
   <i type="logical" name="LSCAAWARE"> F  </i>
   <i type="logical" name="LSCALU"> F  </i>
   <i type="logical" name="LASYNC"> F  </i>
   <i type="logical" name="LORBITALREAL"> F  </i>
  </separator>
  <separator name="miscellaneous" >
   <i type="int" name="IDIOT">     3</i>
   <i type="int" name="ISPECIAL">     0</i>
   <i type="logical" name="LMUSIC"> F  </i>
   <v name="POMASS">    106.42000000     12.01100000     16.00000000</v>
   <v name="DARWINR">      0.00000000      0.00000000      0.00000000</v>
   <v name="DARWINV">      1.00000000      1.00000000      1.00000000</v>
   <i type="logical" name="LCORR"> T  </i>
  </separator>
  <i type="logical" name="GGA_COMPAT"> T  </i>
  <i type="logical" name="LBERRY"> F  </i>
  <i type="int" name="ICORELEVEL">     0</i>
  <i type="logical" name="LDAU"> F  </i>
  <i type="int" name="I_CONSTRAINED_M">     0</i>
  <separator name="electronic exchange-correlation" >
   <i type="string" name="GGA">RP</i>
   <i type="int" name="VOSKOWN">     0</i>
   <i type="logical" name="LHFCALC"> F  </i>
   <i type="string" name="PRECFOCK"></i>
   <i type="logical" name="LSYMGRAD"> F  </i>
   <i type="logical" name="LHFONE"> F  </i>
   <i type="logical" name="LRHFCALC"> F  </i>
   <i type="logical" name="LTHOMAS"> F  </i>
   <i type="logical" name="LMODELHF"> F  </i>
   <i name="ENCUT4O">     -1.00000000</i>
   <i type="int" name="EXXOEP">     0</i>
   <i type="int" name="FOURORBIT">     0</i>
   <i name="AEXX">      0.00000000</i>
   <i name="HFALPHA">      0.00000000</i>
   <i name="MCALPHA">      0.00000000</i>
   <i name="ALDAX">      1.00000000</i>
   <i name="AGGAX">      1.00000000</i>
   <i name="ALDAC">      1.00000000</i>
   <i name="AGGAC">      1.00000000</i>
   <i type="int" name="NKREDX">     1</i>
   <i type="int" name="NKREDY">     1</i>
   <i type="int" name="NKREDZ">     1</i>
   <i type="logical" name="SHIFTRED"> F  </i>
   <i type="logical" name="ODDONLY"> F  </i>
   <i type="logical" name="EVENONLY"> F  </i>
   <i type="int" name="LMAXFOCK">     0</i>
   <i type="int" name="NMAXFOCKAE">     0</i>
   <i type="logical" name="LFOCKAEDFT"> F  </i>
   <i name="HFSCREEN">      0.00000000</i>
   <i name="HFSCREENC">      0.00000000</i>
   <i type="int" name="NBANDSGWLOW">     0</i>
  </separator>
  <separator name="vdW DFT" >
   <i type="logical" name="LUSE_VDW"> F  </i>
   <i name="Zab_VDW">     -0.84910000</i>
   <i name="PARAM1">      0.12340000</i>
   <i name="PARAM2">      1.00000000</i>
   <i name="PARAM3">      0.00000000</i>
  </separator>
  <separator name="model GW" >
   <i type="int" name="MODEL_GW">     0</i>
   <i name="MODEL_EPS0">    284.21052632</i>
   <i name="MODEL_ALPHA">      1.00000000</i>
  </separator>
  <separator name="linear response parameters" >
   <i type="logical" name="LEPSILON"> F  </i>
   <i type="logical" name="LRPA"> F  </i>
   <i type="logical" name="LNABLA"> F  </i>
   <i type="logical" name="LVEL"> F  </i>
   <i type="int" name="KINTER">     0</i>
   <i name="CSHIFT">      0.10000000</i>
   <i name="OMEGAMAX">     -1.00000000</i>
   <i name="DEG_THRESHOLD">      0.00200000</i>
   <i name="RTIME">     -0.10000000</i>
   <i name="WPLASMAI">      0.00000000</i>
   <v name="DFIELD">      0.00000000      0.00000000      0.00000000</v>
   <v name="WPLASMA">      0.00000000      0.00000000      0.00000000      0.00000000      0.00000000      0.00000000      0.00000000      0.00000000      0.00000000</v>
  </separator>
  <separator name="orbital magnetization" >
   <i type="logical" name="NUCIND"> F  </i>
   <v name="MAGPOS">      0.00000000      0.00000000      0.00000000</v>
   <i type="logical" name="LNICSALL"> T  </i>
   <i type="logical" name="ORBITALMAG"> F  </i>
   <i type="logical" name="LMAGBLOCH"> F  </i>
   <i type="logical" name="LCHIMAG"> F  </i>
   <i type="logical" name="LGAUGE"> T  </i>
   <i type="int" name="MAGATOM">     0</i>
   <v name="MAGDIPOL">      0.00000000      0.00000000      0.00000000</v>
   <v name="AVECCONST">      0.00000000      0.00000000      0.00000000</v>
  </separator>
  <separator name="response functions" >
   <i type="logical" name="LADDER"> F  </i>
   <i type="logical" name="LRPAFORCE"> F  </i>
   <i type="logical" name="LFXC"> F  </i>
   <i type="logical" name="LHARTREE"> T  </i>
   <i type="int" name="IBSE">     0</i>
   <v type="int" name="KPOINT">    -1     0     0     0</v>
   <i type="logical" name="LTCTE"> F  </i>
   <i type="logical" name="LTETE"> F  </i>
   <i type="logical" name="LTRIPLET"> F  </i>
   <i type="logical" name="LFXCEPS"> F  </i>
   <i type="logical" name="LFXHEG"> F  </i>
   <i type="int" name="NATURALO">     2</i>
   <i type="logical" name="L2ORDER"> F  </i>
   <i type="logical" name="LMP2LT"> F  </i>
   <i type="logical" name="LUSEW"> F  </i>
   <i name="ENCUTGW">     -2.00000000</i>
   <i name="ENCUTGWSOFT">     -2.00000000</i>
   <i name="ENCUTLF">     -1.00000000</i>
   <i type="int" name="LMAXMP2">    -1</i>
   <i name="SCISSOR">      0.00000000</i>
   <i type="int" name="NOMEGA">     0</i>
   <i type="int" name="NOMEGAR">     0</i>
   <i type="int" name="NBANDSGW">    -1</i>
   <i type="int" name="NBANDSO">    -1</i>
   <i type="int" name="NBANDSV">    -1</i>
   <i type="int" name="NELM">   100</i>
   <i type="int" name="NELMHF">     1</i>
   <i type="int" name="DIM">     3</i>
   <i type="int" name="ANTIRES">     0</i>
   <i name="OMEGAMAX">    -30.00000000</i>
   <i name="OMEGAMIN">    -30.00000000</i>
   <i name="OMEGATL">   -200.00000000</i>
   <i type="int" name="OMEGAGRID">   140</i>
   <i name="CSHIFT">     -0.10000000</i>
   <i type="logical" name="SELFENERGY"> F  </i>
   <i type="logical" name="LSPECTRAL"> F  </i>
   <i type="logical" name="LSPECTRALGW"> F  </i>
   <i type="logical" name="LSINGLES"> F  </i>
   <i type="logical" name="LFERMIGW"> F  </i>
   <i type="logical" name="ODDONLYGW"> F  </i>
   <i type="logical" name="EVENONLYGW"> F  </i>
   <i type="int" name="NKREDLFX">     1</i>
   <i type="int" name="NKREDLFY">     1</i>
   <i type="int" name="NKREDLFZ">     1</i>
   <i type="int" name="MAXMEM"> 10000</i>
   <i type="int" name="TELESCOPE">     0</i>
   <i type="int" name="TAUPAR">     1</i>
   <i type="int" name="OMEGAPAR">    -1</i>
   <i name="LAMBDA">      1.00000000</i>
  </separator>
  <separator name="External order field" >
   <i name="OFIELD_KAPPA">      0.00000000</i>
   <v name="OFIELD_K">      0.00000000      0.00000000      0.00000000</v>
   <i name="OFIELD_Q6_NEAR">      0.00000000</i>
   <i name="OFIELD_Q6_FAR">      0.00000000</i>
   <i name="OFIELD_A">      0.00000000</i>
  </separator>
 </parameters>
 <atominfo>
  <atoms>      57 </atoms>
  <types>       3 </types>
  <array name="atoms" >
   <dimension dim="1">ion</dimension>
   <field type="string">element</field>
   <field type="int">atomtype</field>
   <set>
    <rc><c>Pd</c><c>   1</c></rc>
    <rc><c>Pd</c><c>   1</c></rc>
    <rc><c>Pd</c><c>   1</c></rc>
    <rc><c>Pd</c><c>   1</c></rc>
    <rc><c>Pd</c><c>   1</c></rc>
    <rc><c>Pd</c><c>   1</c></rc>
    <rc><c>Pd</c><c>   1</c></rc>
    <rc><c>Pd</c><c>   1</c></rc>
    <rc><c>Pd</c><c>   1</c></rc>
    <rc><c>Pd</c><c>   1</c></rc>
    <rc><c>Pd</c><c>   1</c></rc>
    <rc><c>Pd</c><c>   1</c></rc>
    <rc><c>Pd</c><c>   1</c></rc>
    <rc><c>Pd</c><c>   1</c></rc>
    <rc><c>Pd</c><c>   1</c></rc>
    <rc><c>Pd</c><c>   1</c></rc>
    <rc><c>Pd</c><c>   1</c></rc>
    <rc><c>Pd</c><c>   1</c></rc>
    <rc><c>Pd</c><c>   1</c></rc>
    <rc><c>Pd</c><c>   1</c></rc>
    <rc><c>Pd</c><c>   1</c></rc>
    <rc><c>Pd</c><c>   1</c></rc>
    <rc><c>Pd</c><c>   1</c></rc>
    <rc><c>Pd</c><c>   1</c></rc>
    <rc><c>Pd</c><c>   1</c></rc>
    <rc><c>Pd</c><c>   1</c></rc>
    <rc><c>Pd</c><c>   1</c></rc>
    <rc><c>Pd</c><c>   1</c></rc>
    <rc><c>Pd</c><c>   1</c></rc>
    <rc><c>Pd</c><c>   1</c></rc>
    <rc><c>Pd</c><c>   1</c></rc>
    <rc><c>Pd</c><c>   1</c></rc>
    <rc><c>Pd</c><c>   1</c></rc>
    <rc><c>Pd</c><c>   1</c></rc>
    <rc><c>Pd</c><c>   1</c></rc>
    <rc><c>Pd</c><c>   1</c></rc>
    <rc><c>Pd</c><c>   1</c></rc>
    <rc><c>Pd</c><c>   1</c></rc>
    <rc><c>Pd</c><c>   1</c></rc>
    <rc><c>Pd</c><c>   1</c></rc>
    <rc><c>Pd</c><c>   1</c></rc>
    <rc><c>Pd</c><c>   1</c></rc>
    <rc><c>Pd</c><c>   1</c></rc>
    <rc><c>Pd</c><c>   1</c></rc>
    <rc><c>Pd</c><c>   1</c></rc>
    <rc><c>Pd</c><c>   1</c></rc>
    <rc><c>Pd</c><c>   1</c></rc>
    <rc><c>Pd</c><c>   1</c></rc>
    <rc><c>Pd</c><c>   1</c></rc>
    <rc><c>Pd</c><c>   1</c></rc>
    <rc><c>Pd</c><c>   1</c></rc>
    <rc><c>Pd</c><c>   1</c></rc>
    <rc><c>Pd</c><c>   1</c></rc>
    <rc><c>Pd</c><c>   1</c></rc>
    <rc><c>Pd</c><c>   1</c></rc>
    <rc><c>C </c><c>   2</c></rc>
    <rc><c>O </c><c>   3</c></rc>
   </set>
  </array>
  <array name="atomtypes" >
   <dimension dim="1">type</dimension>
   <field type="int">atomspertype</field>
   <field type="string">element</field>
   <field>mass</field>
   <field>valence</field>
   <field type="string">pseudopotential</field>
   <set>
    <rc><c>  55</c><c>Pd</c><c>    106.42000000</c><c>     10.00000000</c><c>  PAW_PBE Pd 04Jan2005                  </c></rc>
    <rc><c>   1</c><c>C </c><c>     12.01100000</c><c>      4.00000000</c><c>  PAW_PBE C 08Apr2002                   </c></rc>
    <rc><c>   1</c><c>O </c><c>     16.00000000</c><c>      6.00000000</c><c>  PAW_PBE O 08Apr2002                   </c></rc>
   </set>
  </array>
 </atominfo>
 <structure name="initialpos" >
  <crystal>
   <varray name="basis" >
    <v>      30.00000000       0.00000000       0.00000000 </v>
    <v>       0.00000000      30.00000000       0.00000000 </v>
    <v>       0.00000000       0.00000000      30.00000000 </v>
   </varray>
   <i name="volume">  27000.00000000 </i>
   <varray name="rec_basis" >
    <v>       0.03333333       0.00000000       0.00000000 </v>
    <v>       0.00000000       0.03333333       0.00000000 </v>
    <v>       0.00000000       0.00000000       0.03333333 </v>
   </varray>
  </crystal>
  <varray name="positions" >
   <v>       0.44576020       0.32826710       0.41691983 </v>
   <v>       0.67173288       0.55423978       0.41691983 </v>
   <v>       0.55423980       0.32826710       0.41691983 </v>
   <v>       0.32826712       0.55423978       0.41691983 </v>
   <v>       0.50000000       0.38250690       0.34021317 </v>
   <v>       0.50000000       0.38250690       0.65978680 </v>
   <v>       0.50000000       0.27609440       0.50000000 </v>
   <v>       0.27609443       0.49999998       0.50000000 </v>
   <v>       0.72390557       0.49999998       0.50000000 </v>
   <v>       0.50000000       0.72390555       0.50000000 </v>
   <v>       0.61195280       0.38804720       0.34167483 </v>
   <v>       0.61195280       0.38804720       0.65832513 </v>
   <v>       0.38804722       0.61195278       0.34167483 </v>
   <v>       0.38804722       0.61195278       0.65832513 </v>
   <v>       0.38804720       0.38804720       0.34167483 </v>
   <v>       0.38804720       0.38804720       0.65832513 </v>
   <v>       0.61195278       0.61195278       0.34167483 </v>
   <v>       0.61195278       0.61195278       0.65832513 </v>
   <v>       0.44576020       0.32826710       0.58308023 </v>
   <v>       0.67173288       0.55423978       0.58308023 </v>
   <v>       0.55791699       0.44208301       0.41809300 </v>
   <v>       0.32826705       0.44576024       0.41691983 </v>
   <v>       0.55423973       0.67173293       0.41691983 </v>
   <v>       0.55423980       0.32826710       0.58308023 </v>
   <v>       0.32826712       0.55423978       0.58308023 </v>
   <v>       0.67173295       0.44576024       0.41691983 </v>
   <v>       0.44576027       0.67173293       0.41691983 </v>
   <v>       0.44208301       0.44208301       0.41809300 </v>
   <v>       0.50000000       0.38416601       0.50000000 </v>
   <v>       0.61749315       0.50000005       0.34021317 </v>
   <v>       0.61749315       0.50000005       0.65978680 </v>
   <v>       0.38250685       0.50000005       0.34021317 </v>
   <v>       0.38250685       0.50000005       0.65978680 </v>
   <v>       0.38317830       0.38317830       0.50000000 </v>
   <v>       0.61682172       0.61682172       0.50000000 </v>
   <v>       0.61682170       0.38317830       0.50000000 </v>
   <v>       0.38317828       0.61682172       0.50000000 </v>
   <v>       0.50000000       0.50000000       0.33478917 </v>
   <v>       0.50000000       0.50000000       0.66521087 </v>
   <v>       0.32826705       0.44576024       0.58308023 </v>
   <v>       0.55423973       0.67173293       0.58308023 </v>
   <v>       0.55791699       0.44208301       0.58190703 </v>
   <v>       0.44208298       0.55791702       0.41809300 </v>
   <v>       0.44208301       0.44208301       0.58190703 </v>
   <v>       0.67173295       0.44576024       0.58308023 </v>
   <v>       0.44576027       0.67173293       0.58308023 </v>
   <v>       0.55791702       0.55791702       0.41809300 </v>
   <v>       0.38416599       0.50000002       0.50000000 </v>
   <v>       0.61583401       0.50000002       0.50000000 </v>
   <v>       0.50000000       0.61749319       0.34021317 </v>
   <v>       0.50000000       0.61749319       0.65978680 </v>
   <v>       0.50000000       0.50000000       0.50000000 </v>
   <v>       0.44208298       0.55791702       0.58190703 </v>
   <v>       0.55791702       0.55791702       0.58190703 </v>
   <v>       0.50000000       0.61583404       0.50000000 </v>
   <v>       0.50559250       0.50452070       0.24416843 </v>
   <v>       0.50641410       0.50518483       0.20658327 </v>
  </varray>
  <varray name="selective"  type="logical" >
   <v type="logical" >  F  F  F </v>
   <v type="logical" >  F  F  F </v>
   <v type="logical" >  F  F  F </v>
   <v type="logical" >  F  F  F </v>
   <v type="logical" >  F  F  F </v>
   <v type="logical" >  F  F  F </v>
   <v type="logical" >  F  F  F </v>
   <v type="logical" >  F  F  F </v>
   <v type="logical" >  F  F  F </v>
   <v type="logical" >  F  F  F </v>
   <v type="logical" >  F  F  F </v>
   <v type="logical" >  F  F  F </v>
   <v type="logical" >  F  F  F </v>
   <v type="logical" >  F  F  F </v>
   <v type="logical" >  F  F  F </v>
   <v type="logical" >  F  F  F </v>
   <v type="logical" >  F  F  F </v>
   <v type="logical" >  F  F  F </v>
   <v type="logical" >  F  F  F </v>
   <v type="logical" >  F  F  F </v>
   <v type="logical" >  F  F  F </v>
   <v type="logical" >  F  F  F </v>
   <v type="logical" >  F  F  F </v>
   <v type="logical" >  F  F  F </v>
   <v type="logical" >  F  F  F </v>
   <v type="logical" >  F  F  F </v>
   <v type="logical" >  F  F  F </v>
   <v type="logical" >  F  F  F </v>
   <v type="logical" >  F  F  F </v>
   <v type="logical" >  F  F  F </v>
   <v type="logical" >  F  F  F </v>
   <v type="logical" >  F  F  F </v>
   <v type="logical" >  F  F  F </v>
   <v type="logical" >  F  F  F </v>
   <v type="logical" >  F  F  F </v>
   <v type="logical" >  F  F  F </v>
   <v type="logical" >  F  F  F </v>
   <v type="logical" >  F  F  F </v>
   <v type="logical" >  F  F  F </v>
   <v type="logical" >  F  F  F </v>
   <v type="logical" >  F  F  F </v>
   <v type="logical" >  F  F  F </v>
   <v type="logical" >  F  F  F </v>
   <v type="logical" >  F  F  F </v>
   <v type="logical" >  F  F  F </v>
   <v type="logical" >  F  F  F </v>
   <v type="logical" >  F  F  F </v>
   <v type="logical" >  F  F  F </v>
   <v type="logical" >  F  F  F </v>
   <v type="logical" >  F  F  F </v>
   <v type="logical" >  F  F  F </v>
   <v type="logical" >  F  F  F </v>
   <v type="logical" >  F  F  F </v>
   <v type="logical" >  F  F  F </v>
   <v type="logical" >  F  F  F </v>
   <v type="logical" >  F  F  F </v>
   <v type="logical" >  F  F  F </v>
  </varray>
  <nose>
   <v>      -3.00000000       0.00000000       0.00010000       0.00010000 </v>
  </nose>
 </structure>
 <calculation>
  <scstep>
   <time name="dav">  368.02  368.08</time>
   <time name="total">  383.70  383.76</time>
   <energy>
    <i name="alphaZ">     75.25431677 </i>
    <i name="ewald"> 137806.61045040 </i>
    <i name="hartreedc">-181174.79886292 </i>
    <i name="XCdc">  -1704.05085468 </i>
    <i name="pawpsdc">  44873.02882129 </i>
    <i name="pawaedc"> -41398.84523641 </i>
    <i name="eentropy">      0.02120026 </i>
    <i name="bandstr">    818.23048579 </i>
    <i name="atom">  45086.50549395 </i>
    <i name="e_fr_energy">   4381.95581445 </i>
    <i name="e_wo_entrp">   4381.93461419 </i>
    <i name="e_0_energy">   4381.95051439 </i>
   </energy>
  </scstep>
  <scstep>
   <time name="dav">  608.05  608.04</time>
   <time name="total">  608.05  608.05</time>
   <energy>
    <i name="e_fr_energy">   2011.98144428 </i>
    <i name="e_wo_entrp">   2012.01318261 </i>
    <i name="e_0_energy">   2011.98937886 </i>
   </energy>
  </scstep>
  <scstep>
   <time name="dav">  499.86  499.86</time>
   <time name="total">  499.86  499.86</time>
   <energy>
    <i name="e_fr_energy">    228.84089481 </i>
    <i name="e_wo_entrp">    228.88785546 </i>
    <i name="e_0_energy">    228.85263497 </i>
   </energy>
  </scstep>
  <scstep>
   <time name="dav">  427.60  427.60</time>
   <time name="total">  427.60  427.60</time>
   <energy>
    <i name="e_fr_energy">   -135.32365596 </i>
    <i name="e_wo_entrp">   -135.33538184 </i>
    <i name="e_0_energy">   -135.32658743 </i>
   </energy>
  </scstep>
  <scstep>
   <time name="dav">  520.58  520.58</time>
   <time name="total">  547.07  547.07</time>
   <energy>
    <i name="e_fr_energy">   -178.73281133 </i>
    <i name="e_wo_entrp">   -179.27285045 </i>
    <i name="e_0_energy">   -178.86782111 </i>
   </energy>
  </scstep>
  <scstep>
   <time name="diag">   68.46   68.46</time>
   <time name="diis">  192.05  192.05</time>
   <time name="orth">   13.65   13.65</time>
   <time name="total">  314.45  314.45</time>
   <energy>
    <i name="e_fr_energy">   -178.56107359 </i>
    <i name="e_wo_entrp">   -178.29058438 </i>
    <i name="e_0_energy">   -178.49345128 </i>
   </energy>
  </scstep>
  <scstep>
   <time name="diag">   68.67   68.67</time>
   <time name="diis">  228.38  228.38</time>
   <time name="orth">   13.64   13.64</time>
   <time name="total">  350.57  350.57</time>
   <energy>
    <i name="e_fr_energy">   -181.09416719 </i>
    <i name="e_wo_entrp">   -181.09181452 </i>
    <i name="e_0_energy">   -181.09357902 </i>
   </energy>
  </scstep>
  <scstep>
   <time name="diag">   68.74   68.75</time>
   <time name="diis">  212.48  212.49</time>
   <time name="orth">   13.62   13.62</time>
   <time name="total">  334.57  334.57</time>
   <energy>
    <i name="e_fr_energy">   -182.83897967 </i>
    <i name="e_wo_entrp">   -182.77122930 </i>
    <i name="e_0_energy">   -182.82204208 </i>
   </energy>
  </scstep>
  <scstep>
   <time name="diag">   68.69   68.69</time>
   <time name="diis">  200.12  200.12</time>
   <time name="orth">   13.59   13.59</time>
   <time name="total">  322.20  322.20</time>
   <energy>
    <i name="e_fr_energy">   -182.60540187 </i>
    <i name="e_wo_entrp">   -182.62595552 </i>
    <i name="e_0_energy">   -182.61054029 </i>
   </energy>
  </scstep>
  <scstep>
   <time name="diag">   68.61   68.61</time>
   <time name="diis">  202.23  202.23</time>
   <time name="orth">   13.79   13.79</time>
   <time name="total">  324.54  324.53</time>
   <energy>
    <i name="e_fr_energy">   -180.93661630 </i>
    <i name="e_wo_entrp">   -180.81834866 </i>
    <i name="e_0_energy">   -180.90704939 </i>
   </energy>
  </scstep>
  <scstep>
   <time name="diag">   68.57   68.57</time>
   <time name="diis">  204.21  204.20</time>
   <time name="orth">   13.86   13.86</time>
   <time name="total">  327.31  327.31</time>
   <energy>
    <i name="e_fr_energy">   -178.53527810 </i>
    <i name="e_wo_entrp">   -178.42060748 </i>
    <i name="e_0_energy">   -178.50661044 </i>
   </energy>
  </scstep>
  <scstep>
   <time name="diag">   69.61   69.61</time>
   <time name="diis">  200.59  200.59</time>
   <time name="orth">   13.97   13.97</time>
   <time name="total">  325.77  325.76</time>
   <energy>
    <i name="e_fr_energy">   -176.85674886 </i>
    <i name="e_wo_entrp">   -176.83754596 </i>
    <i name="e_0_energy">   -176.85194814 </i>
   </energy>
  </scstep>
  <scstep>
   <time name="diag">   71.03   71.03</time>
   <time name="diis">  205.62  205.61</time>
   <time name="orth">   13.84   13.84</time>
   <time name="total">  331.93  331.92</time>
   <energy>
    <i name="e_fr_energy">   -175.91395670 </i>
    <i name="e_wo_entrp">   -175.83633227 </i>
    <i name="e_0_energy">   -175.89455059 </i>
   </energy>
  </scstep>
  <scstep>
   <time name="diag">   71.77   71.77</time>
   <time name="diis">  199.85  199.85</time>
   <time name="orth">   13.64   13.64</time>
   <time name="total">  326.65  326.65</time>
   <energy>
    <i name="e_fr_energy">   -175.26155851 </i>
    <i name="e_wo_entrp">   -175.12861014 </i>
    <i name="e_0_energy">   -175.22832142 </i>
   </energy>
  </scstep>
  <scstep>
   <time name="diag">   71.69   71.69</time>
   <time name="diis">  199.08  199.08</time>
   <time name="orth">   13.62   13.62</time>
   <time name="total">  325.42  325.42</time>
   <energy>
    <i name="e_fr_energy">   -175.24189010 </i>
    <i name="e_wo_entrp">   -175.17969442 </i>
    <i name="e_0_energy">   -175.22634118 </i>
   </energy>
  </scstep>
  <scstep>
   <time name="diag">   71.64   71.64</time>
   <time name="diis">  197.57  197.57</time>
   <time name="orth">   13.44   13.44</time>
   <time name="total">  323.64  323.64</time>
   <energy>
    <i name="e_fr_energy">   -175.12085932 </i>
    <i name="e_wo_entrp">   -175.00159706 </i>
    <i name="e_0_energy">   -175.09104375 </i>
   </energy>
  </scstep>
  <scstep>
   <time name="diag">   71.50   71.50</time>
   <time name="diis">  197.08  197.08</time>
   <time name="orth">   13.36   13.36</time>
   <time name="total">  322.82  322.82</time>
   <energy>
    <i name="e_fr_energy">   -175.06906673 </i>
    <i name="e_wo_entrp">   -175.15292254 </i>
    <i name="e_0_energy">   -175.09003069 </i>
   </energy>
  </scstep>
  <scstep>
   <time name="diag">   71.63   71.63</time>
   <time name="diis">  198.30  198.30</time>
   <time name="orth">   13.40   13.40</time>
   <time name="total">  324.34  324.34</time>
   <energy>
    <i name="e_fr_energy">   -174.61538669 </i>
    <i name="e_wo_entrp">   -174.58352003 </i>
    <i name="e_0_energy">   -174.60742002 </i>
   </energy>
  </scstep>
  <scstep>
   <time name="diag">   71.11   71.11</time>
   <time name="diis">  198.29  198.29</time>
   <time name="orth">   13.48   13.48</time>
   <time name="total">  323.90  323.90</time>
   <energy>
    <i name="e_fr_energy">   -174.58473683 </i>
    <i name="e_wo_entrp">   -174.57744502 </i>
    <i name="e_0_energy">   -174.58291388 </i>
   </energy>
  </scstep>
  <scstep>
   <time name="diag">   71.51   71.51</time>
   <time name="diis">  198.50  198.50</time>
   <time name="orth">   13.46   13.46</time>
   <time name="total">  324.39  324.39</time>
   <energy>
    <i name="e_fr_energy">   -174.61121732 </i>
    <i name="e_wo_entrp">   -174.62246448 </i>
    <i name="e_0_energy">   -174.61402911 </i>
   </energy>
  </scstep>
  <scstep>
   <time name="diag">   71.41   71.41</time>
   <time name="diis">  199.62  199.63</time>
   <time name="orth">   13.44   13.44</time>
   <time name="total">  325.64  325.65</time>
   <energy>
    <i name="e_fr_energy">   -174.37597438 </i>
    <i name="e_wo_entrp">   -174.35476921 </i>
    <i name="e_0_energy">   -174.37067308 </i>
   </energy>
  </scstep>
  <scstep>
   <time name="diag">   71.35   71.35</time>
   <time name="diis">  198.50  198.50</time>
   <time name="orth">   13.49   13.49</time>
   <time name="total">  324.80  324.80</time>
   <energy>
    <i name="e_fr_energy">   -174.26688387 </i>
    <i name="e_wo_entrp">   -174.22448621 </i>
    <i name="e_0_energy">   -174.25628445 </i>
   </energy>
  </scstep>
  <scstep>
   <time name="diag">   71.23   71.23</time>
   <time name="diis">  197.13  197.13</time>
   <time name="orth">   13.59   13.59</time>
   <time name="total">  323.76  323.75</time>
   <energy>
    <i name="e_fr_energy">   -174.16974800 </i>
    <i name="e_wo_entrp">   -174.08461767 </i>
    <i name="e_0_energy">   -174.14846542 </i>
   </energy>
  </scstep>
  <scstep>
   <time name="diag">   71.38   71.38</time>
   <time name="diis">  196.86  196.86</time>
   <time name="orth">   13.52   13.52</time>
   <time name="total">  323.86  323.86</time>
   <energy>
    <i name="e_fr_energy">   -174.09265972 </i>
    <i name="e_wo_entrp">   -173.99684105 </i>
    <i name="e_0_energy">   -174.06870505 </i>
   </energy>
  </scstep>
  <scstep>
   <time name="diag">   70.61   70.61</time>
   <time name="diis">  197.49  197.49</time>
   <time name="orth">   13.70   13.70</time>
   <time name="total">  323.63  323.63</time>
   <energy>
    <i name="e_fr_energy">   -173.98489340 </i>
    <i name="e_wo_entrp">   -173.88303610 </i>
    <i name="e_0_energy">   -173.95942907 </i>
   </energy>
  </scstep>
  <scstep>
   <time name="diag">   69.84   69.84</time>
   <time name="diis">  198.17  198.17</time>
   <time name="orth">   13.55   13.55</time>
   <time name="total">  323.56  323.56</time>
   <energy>
    <i name="e_fr_energy">   -173.94459018 </i>
    <i name="e_wo_entrp">   -173.85535375 </i>
    <i name="e_0_energy">   -173.92228107 </i>
   </energy>
  </scstep>
  <scstep>
   <time name="diag">   70.51   70.51</time>
   <time name="diis">  195.98  195.98</time>
   <time name="orth">   13.42   13.42</time>
   <time name="total">  322.11  322.11</time>
   <energy>
    <i name="e_fr_energy">   -173.89400286 </i>
    <i name="e_wo_entrp">   -173.81228394 </i>
    <i name="e_0_energy">   -173.87357313 </i>
   </energy>
  </scstep>
  <scstep>
   <time name="diag">   71.13   71.13</time>
   <time name="diis">  194.61  194.62</time>
   <time name="orth">   13.59   13.59</time>
   <time name="total">  321.68  321.69</time>
   <energy>
    <i name="e_fr_energy">   -173.88451248 </i>
    <i name="e_wo_entrp">   -173.79791437 </i>
    <i name="e_0_energy">   -173.86286295 </i>
   </energy>
  </scstep>
  <scstep>
   <time name="diag">   70.24   70.24</time>
   <time name="diis">  197.68  197.68</time>
   <time name="orth">   13.43   13.43</time>
   <time name="total">  324.06  324.06</time>
   <energy>
    <i name="e_fr_energy">   -173.86628012 </i>
    <i name="e_wo_entrp">   -173.77994817 </i>
    <i name="e_0_energy">   -173.84469713 </i>
   </energy>
  </scstep>
  <scstep>
   <time name="diag">   69.73   69.73</time>
   <time name="diis">  198.55  198.55</time>
   <time name="orth">   13.58   13.58</time>
   <time name="total">  323.73  323.73</time>
   <energy>
    <i name="e_fr_energy">   -173.83448311 </i>
    <i name="e_wo_entrp">   -173.75199606 </i>
    <i name="e_0_energy">   -173.81386135 </i>
   </energy>
  </scstep>
  <scstep>
   <time name="diag">   70.47   70.47</time>
   <time name="diis">  196.96  196.96</time>
   <time name="orth">   13.81   13.81</time>
   <time name="total">  323.92  323.92</time>
   <energy>
    <i name="e_fr_energy">   -173.83222878 </i>
    <i name="e_wo_entrp">   -173.74648273 </i>
    <i name="e_0_energy">   -173.81079227 </i>
   </energy>
  </scstep>
  <scstep>
   <time name="diag">   70.70   70.70</time>
   <time name="diis">  196.77  196.77</time>
   <time name="orth">   13.89   13.89</time>
   <time name="total">  324.20  324.20</time>
   <energy>
    <i name="e_fr_energy">   -173.82973493 </i>
    <i name="e_wo_entrp">   -173.74620936 </i>
    <i name="e_0_energy">   -173.80885353 </i>
   </energy>
  </scstep>
  <scstep>
   <time name="diag">   70.25   70.25</time>
   <time name="diis">  198.48  198.48</time>
   <time name="orth">   13.58   13.58</time>
   <time name="total">  325.07  325.07</time>
   <energy>
    <i name="e_fr_energy">   -173.82419066 </i>
    <i name="e_wo_entrp">   -173.74112172 </i>
    <i name="e_0_energy">   -173.80342342 </i>
   </energy>
  </scstep>
  <scstep>
   <time name="diag">   70.36   70.36</time>
   <time name="diis">  195.02  195.02</time>
   <time name="orth">   13.63   13.63</time>
   <time name="total">  321.72  321.71</time>
   <energy>
    <i name="e_fr_energy">   -173.82237197 </i>
    <i name="e_wo_entrp">   -173.73644296 </i>
    <i name="e_0_energy">   -173.80088972 </i>
   </energy>
  </scstep>
  <scstep>
   <time name="diag">   70.89   70.89</time>
   <time name="diis">  194.71  194.72</time>
   <time name="orth">   13.86   13.86</time>
   <time name="total">  322.19  322.19</time>
   <energy>
    <i name="e_fr_energy">   -173.81851482 </i>
    <i name="e_wo_entrp">   -173.73122363 </i>
    <i name="e_0_energy">   -173.79669202 </i>
   </energy>
  </scstep>
  <scstep>
   <time name="diag">   70.54   70.54</time>
   <time name="diis">  195.07  195.07</time>
   <time name="orth">   13.69   13.70</time>
   <time name="total">  321.70  321.71</time>
   <energy>
    <i name="e_fr_energy">   -173.81864924 </i>
    <i name="e_wo_entrp">   -173.73071616 </i>
    <i name="e_0_energy">   -173.79666597 </i>
   </energy>
  </scstep>
  <scstep>
   <time name="diag">   70.85   70.85</time>
   <time name="diis">  193.65  193.65</time>
   <time name="orth">   13.64   13.63</time>
   <time name="total">  320.94  320.94</time>
   <energy>
    <i name="e_fr_energy">   -173.81955946 </i>
    <i name="e_wo_entrp">   -173.73110596 </i>
    <i name="e_0_energy">   -173.79744609 </i>
   </energy>
  </scstep>
  <scstep>
   <time name="diag">   70.12   70.12</time>
   <time name="diis">  193.06  193.07</time>
   <time name="orth">   13.65   13.64</time>
   <time name="total">  319.68  319.69</time>
   <energy>
    <i name="e_fr_energy">   -173.82068062 </i>
    <i name="e_wo_entrp">   -173.73418693 </i>
    <i name="e_0_energy">   -173.79905720 </i>
   </energy>
  </scstep>
  <scstep>
   <time name="diag">   70.10   70.10</time>
   <time name="diis">  188.97  188.97</time>
   <time name="orth">   13.47   13.47</time>
   <time name="total">  314.63  314.63</time>
   <energy>
    <i name="e_fr_energy">   -173.82456329 </i>
    <i name="e_wo_entrp">   -173.74121140 </i>
    <i name="e_0_energy">   -173.80372531 </i>
   </energy>
  </scstep>
  <scstep>
   <time name="diag">   70.09   70.09</time>
   <time name="diis">  193.16  193.16</time>
   <time name="orth">   13.76   13.76</time>
   <time name="total">  319.94  319.94</time>
   <energy>
    <i name="e_fr_energy">   -173.82750834 </i>
    <i name="e_wo_entrp">   -173.74455881 </i>
    <i name="e_0_energy">   -173.80677095 </i>
   </energy>
  </scstep>
  <scstep>
   <time name="diag">   70.48   70.48</time>
   <time name="diis">  173.17  173.17</time>
   <time name="orth">   13.75   13.75</time>
   <time name="total">  300.88  300.88</time>
   <energy>
    <i name="e_fr_energy">   -173.82947433 </i>
    <i name="e_wo_entrp">   -173.74670624 </i>
    <i name="e_0_energy">   -173.80878230 </i>
   </energy>
  </scstep>
  <scstep>
   <time name="diag">   71.26   71.27</time>
   <time name="diis">  162.84  162.85</time>
   <time name="orth">   13.67   13.67</time>
   <time name="total">  291.50  291.51</time>
   <energy>
    <i name="e_fr_energy">   -173.83230459 </i>
    <i name="e_wo_entrp">   -173.74733808 </i>
    <i name="e_0_energy">   -173.81106296 </i>
   </energy>
  </scstep>
  <scstep>
   <time name="diag">   70.89   70.89</time>
   <time name="diis">  129.75  129.75</time>
   <time name="orth">   13.46   13.46</time>
   <time name="total">  257.98  257.98</time>
   <energy>
    <i name="e_fr_energy">   -173.83338381 </i>
    <i name="e_wo_entrp">   -173.74893006 </i>
    <i name="e_0_energy">   -173.81227037 </i>
   </energy>
  </scstep>
  <scstep>
   <time name="diag">   70.43   70.44</time>
   <time name="diis">  124.37  124.37</time>
   <time name="orth">   13.56   13.56</time>
   <time name="total">  252.25  252.26</time>
   <energy>
    <i name="e_fr_energy">   -173.83459767 </i>
    <i name="e_wo_entrp">   -173.74944108 </i>
    <i name="e_0_energy">   -173.81330852 </i>
   </energy>
  </scstep>
  <scstep>
   <time name="diag">   70.00   69.99</time>
   <time name="diis">  120.75  120.75</time>
   <time name="orth">   13.76   13.76</time>
   <time name="total">  248.72  248.72</time>
   <energy>
    <i name="e_fr_energy">   -173.83507942 </i>
    <i name="e_wo_entrp">   -173.74916784 </i>
    <i name="e_0_energy">   -173.81360153 </i>
   </energy>
  </scstep>
  <scstep>
   <time name="diag">   70.60   70.60</time>
   <time name="diis">  119.70  119.70</time>
   <time name="orth">   13.87   13.87</time>
   <time name="total">  248.94  248.94</time>
   <energy>
    <i name="e_fr_energy">   -173.83672169 </i>
    <i name="e_wo_entrp">   -173.75114298 </i>
    <i name="e_0_energy">   -173.81532701 </i>
   </energy>
  </scstep>
  <scstep>
   <time name="diag">   71.49   71.49</time>
   <time name="diis">  121.23  121.23</time>
   <time name="orth">   13.45   13.45</time>
   <time name="total">  250.62  250.62</time>
   <energy>
    <i name="e_fr_energy">   -173.83852471 </i>
    <i name="e_wo_entrp">   -173.75312845 </i>
    <i name="e_0_energy">   -173.81717565 </i>
   </energy>
  </scstep>
  <scstep>
   <time name="diag">   71.35   71.35</time>
   <time name="diis">  122.07  122.07</time>
   <time name="orth">   13.39   13.39</time>
   <time name="total">  250.63  250.63</time>
   <energy>
    <i name="e_fr_energy">   -173.83928963 </i>
    <i name="e_wo_entrp">   -173.75414445 </i>
    <i name="e_0_energy">   -173.81800334 </i>
   </energy>
  </scstep>
  <scstep>
   <time name="diag">   70.96   70.96</time>
   <time name="diis">  121.70  121.70</time>
   <time name="orth">   13.32   13.32</time>
   <time name="total">  249.62  249.62</time>
   <energy>
    <i name="e_fr_energy">   -173.84106279 </i>
    <i name="e_wo_entrp">   -173.75562080 </i>
    <i name="e_0_energy">   -173.81970229 </i>
   </energy>
  </scstep>
  <scstep>
   <time name="diag">   70.56   70.56</time>
   <time name="diis">  126.10  126.10</time>
   <time name="orth">   14.10   14.10</time>
   <time name="total">  253.98  253.98</time>
   <energy>
    <i name="e_fr_energy">   -173.84170430 </i>
    <i name="e_wo_entrp">   -173.75618560 </i>
    <i name="e_0_energy">   -173.82032463 </i>
   </energy>
  </scstep>
  <scstep>
   <time name="diag">   69.32   69.32</time>
   <time name="diis">  123.45  123.45</time>
   <time name="orth">   13.90   13.90</time>
   <time name="total">  251.05  251.05</time>
   <energy>
    <i name="e_fr_energy">   -173.84290186 </i>
    <i name="e_wo_entrp">   -173.75763145 </i>
    <i name="e_0_energy">   -173.82158426 </i>
   </energy>
  </scstep>
  <scstep>
   <time name="diag">   70.55   70.55</time>
   <time name="diis">  120.54  120.54</time>
   <time name="orth">   13.80   13.80</time>
   <time name="total">  249.81  249.81</time>
   <energy>
    <i name="e_fr_energy">   -173.84363834 </i>
    <i name="e_wo_entrp">   -173.75804552 </i>
    <i name="e_0_energy">   -173.82224014 </i>
   </energy>
  </scstep>
  <scstep>
   <time name="diag">   71.04   71.04</time>
   <time name="diis">  116.95  116.95</time>
   <time name="orth">   13.30   13.30</time>
   <time name="total">  246.08  246.08</time>
   <energy>
    <i name="e_fr_energy">   -173.84393621 </i>
    <i name="e_wo_entrp">   -173.75832128 </i>
    <i name="e_0_energy">   -173.82253247 </i>
   </energy>
  </scstep>
  <scstep>
   <time name="diag">   70.08   70.08</time>
   <time name="diis">  114.95  114.96</time>
   <time name="orth">   13.76   13.76</time>
   <time name="total">  243.93  243.94</time>
   <energy>
    <i name="e_fr_energy">   -173.84449480 </i>
    <i name="e_wo_entrp">   -173.75888618 </i>
    <i name="e_0_energy">   -173.82309265 </i>
   </energy>
  </scstep>
  <scstep>
   <time name="diag">   69.58   69.58</time>
   <time name="diis">   88.82   88.83</time>
   <time name="orth">   13.67   13.67</time>
   <time name="total">  217.94  217.96</time>
   <energy>
    <i name="e_fr_energy">   -173.84463666 </i>
    <i name="e_wo_entrp">   -173.75910158 </i>
    <i name="e_0_energy">   -173.82325289 </i>
   </energy>
  </scstep>
  <scstep>
   <time name="diag">   70.65   70.65</time>
   <time name="diis">   88.81   88.82</time>
   <time name="orth">   13.71   13.71</time>
   <time name="total">  217.33  217.34</time>
   <energy>
    <i name="e_fr_energy">   -173.84481806 </i>
    <i name="e_wo_entrp">   -173.75940617 </i>
    <i name="e_0_energy">   -173.82346509 </i>
   </energy>
  </scstep>
  <scstep>
   <time name="diag">   70.47   70.47</time>
   <time name="diis">   85.42   85.42</time>
   <time name="orth">   13.99   13.99</time>
   <time name="total">  215.22  215.23</time>
   <energy>
    <i name="e_fr_energy">   -173.84496002 </i>
    <i name="e_wo_entrp">   -173.75943832 </i>
    <i name="e_0_energy">   -173.82357959 </i>
   </energy>
  </scstep>
  <scstep>
   <time name="diag">   69.75   69.75</time>
   <time name="diis">   83.30   83.30</time>
   <time name="orth">   13.45   13.45</time>
   <time name="total">  212.66  212.67</time>
   <energy>
    <i name="e_fr_energy">   -173.84511485 </i>
    <i name="e_wo_entrp">   -173.75961573 </i>
    <i name="e_0_energy">   -173.82374007 </i>
   </energy>
  </scstep>
  <scstep>
   <time name="diag">   70.89   70.89</time>
   <time name="diis">   82.55   82.55</time>
   <time name="orth">   13.60   13.60</time>
   <time name="total">  212.19  212.19</time>
   <energy>
    <i name="e_fr_energy">   -173.84523089 </i>
    <i name="e_wo_entrp">   -173.75982608 </i>
    <i name="e_0_energy">   -173.82387969 </i>
   </energy>
  </scstep>
  <scstep>
   <time name="diag">   70.92   70.92</time>
   <time name="diis">   87.55   87.55</time>
   <time name="orth">   13.87   13.87</time>
   <time name="total">  217.20  217.21</time>
   <energy>
    <i name="e_fr_energy">   -173.84536595 </i>
    <i name="e_wo_entrp">   -173.75987230 </i>
    <i name="e_0_energy">   -173.82399253 </i>
   </energy>
  </scstep>
  <scstep>
   <time name="diag">   70.35   70.35</time>
   <time name="diis">   74.55   74.56</time>
   <time name="orth">   13.57   13.57</time>
   <time name="total">  173.20  173.21</time>
   <energy>
    <i name="alphaZ">     75.25431677 </i>
    <i name="ewald"> 137806.61045040 </i>
    <i name="hartreedc">-182183.44380736 </i>
    <i name="XCdc">  -1693.36413007 </i>
    <i name="pawpsdc">  46035.55404061 </i>
    <i name="pawaedc"> -42504.92546403 </i>
    <i name="eentropy">     -0.08544800 </i>
    <i name="bandstr">  -2795.95087513 </i>
    <i name="atom">  45086.50549395 </i>
    <i name="e_fr_energy">   -173.84542286 </i>
    <i name="e_wo_entrp">   -173.75997487 </i>
    <i name="e_0_energy">   -173.82406086 </i>
   </energy>
  </scstep>
  <structure>
   <crystal>
    <varray name="basis" >
     <v>      30.00000000       0.00000000       0.00000000 </v>
     <v>       0.00000000      30.00000000       0.00000000 </v>
     <v>       0.00000000       0.00000000      30.00000000 </v>
    </varray>
    <i name="volume">  27000.00000000 </i>
    <varray name="rec_basis" >
     <v>       0.03333333       0.00000000       0.00000000 </v>
     <v>       0.00000000       0.03333333       0.00000000 </v>
     <v>       0.00000000       0.00000000       0.03333333 </v>
    </varray>
   </crystal>
   <varray name="positions" >
    <v>       0.44576020       0.32826710       0.41691983 </v>
    <v>       0.67173288       0.55423978       0.41691983 </v>
    <v>       0.55423980       0.32826710       0.41691983 </v>
    <v>       0.32826712       0.55423978       0.41691983 </v>
    <v>       0.50000000       0.38250690       0.34021317 </v>
    <v>       0.50000000       0.38250690       0.65978680 </v>
    <v>       0.50000000       0.27609440       0.50000000 </v>
    <v>       0.27609443       0.49999998       0.50000000 </v>
    <v>       0.72390557       0.49999998       0.50000000 </v>
    <v>       0.50000000       0.72390555       0.50000000 </v>
    <v>       0.61195280       0.38804720       0.34167483 </v>
    <v>       0.61195280       0.38804720       0.65832513 </v>
    <v>       0.38804722       0.61195278       0.34167483 </v>
    <v>       0.38804722       0.61195278       0.65832513 </v>
    <v>       0.38804720       0.38804720       0.34167483 </v>
    <v>       0.38804720       0.38804720       0.65832513 </v>
    <v>       0.61195278       0.61195278       0.34167483 </v>
    <v>       0.61195278       0.61195278       0.65832513 </v>
    <v>       0.44576020       0.32826710       0.58308023 </v>
    <v>       0.67173288       0.55423978       0.58308023 </v>
    <v>       0.55791699       0.44208301       0.41809300 </v>
    <v>       0.32826705       0.44576024       0.41691983 </v>
    <v>       0.55423973       0.67173293       0.41691983 </v>
    <v>       0.55423980       0.32826710       0.58308023 </v>
    <v>       0.32826712       0.55423978       0.58308023 </v>
    <v>       0.67173295       0.44576024       0.41691983 </v>
    <v>       0.44576027       0.67173293       0.41691983 </v>
    <v>       0.44208301       0.44208301       0.41809300 </v>
    <v>       0.50000000       0.38416601       0.50000000 </v>
    <v>       0.61749315       0.50000005       0.34021317 </v>
    <v>       0.61749315       0.50000005       0.65978680 </v>
    <v>       0.38250685       0.50000005       0.34021317 </v>
    <v>       0.38250685       0.50000005       0.65978680 </v>
    <v>       0.38317830       0.38317830       0.50000000 </v>
    <v>       0.61682172       0.61682172       0.50000000 </v>
    <v>       0.61682170       0.38317830       0.50000000 </v>
    <v>       0.38317828       0.61682172       0.50000000 </v>
    <v>       0.50000000       0.50000000       0.33478917 </v>
    <v>       0.50000000       0.50000000       0.66521087 </v>
    <v>       0.32826705       0.44576024       0.58308023 </v>
    <v>       0.55423973       0.67173293       0.58308023 </v>
    <v>       0.55791699       0.44208301       0.58190703 </v>
    <v>       0.44208298       0.55791702       0.41809300 </v>
    <v>       0.44208301       0.44208301       0.58190703 </v>
    <v>       0.67173295       0.44576024       0.58308023 </v>
    <v>       0.44576027       0.67173293       0.58308023 </v>
    <v>       0.55791702       0.55791702       0.41809300 </v>
    <v>       0.38416599       0.50000002       0.50000000 </v>
    <v>       0.61583401       0.50000002       0.50000000 </v>
    <v>       0.50000000       0.61749319       0.34021317 </v>
    <v>       0.50000000       0.61749319       0.65978680 </v>
    <v>       0.50000000       0.50000000       0.50000000 </v>
    <v>       0.44208298       0.55791702       0.58190703 </v>
    <v>       0.55791702       0.55791702       0.58190703 </v>
    <v>       0.50000000       0.61583404       0.50000000 </v>
    <v>       0.50559250       0.50452070       0.24416843 </v>
    <v>       0.50641410       0.50518483       0.20658327 </v>
   </varray>
  </structure>
  <varray name="forces" >
   <v>       0.70223989       1.10759993       0.29096839 </v>
   <v>      -1.10782520      -0.70238602       0.29133884 </v>
   <v>      -0.70179412       1.10724069       0.29142013 </v>
   <v>       1.10726381      -0.70178110       0.29136504 </v>
   <v>      -0.00029100       0.39032639       1.30968154 </v>
   <v>      -0.00000285       0.40972401      -1.28121550 </v>
   <v>      -0.00006341       1.51479195      -0.00036137 </v>
   <v>       1.51479342      -0.00017106      -0.00032928 </v>
   <v>      -1.51450967      -0.00016802      -0.00074301 </v>
   <v>      -0.00006562      -1.51484040      -0.00065098 </v>
   <v>      -0.75650095       0.75573695       1.07335823 </v>
   <v>      -0.75508658       0.75521334      -1.07288049 </v>
   <v>       0.75604218      -0.75670125       1.07333391 </v>
   <v>       0.75540251      -0.75527619      -1.07299780 </v>
   <v>       0.75638909       0.75628698       1.07263699 </v>
   <v>       0.75530738       0.75516529      -1.07306228 </v>
   <v>      -0.75609899      -0.75616072       1.07426590 </v>
   <v>      -0.75519206      -0.75530286      -1.07273379 </v>
   <v>       0.70251268       1.10760856      -0.29262831 </v>
   <v>      -1.10754908      -0.70240744      -0.29181625 </v>
   <v>       0.10886203      -0.11228066      -0.15444605 </v>
   <v>       1.10750364       0.70189715       0.29103258 </v>
   <v>      -0.70206662      -1.10768420       0.29143554 </v>
   <v>      -0.70260128       1.10738094      -0.29224095 </v>
   <v>       1.10741257      -0.70260080      -0.29226014 </v>
   <v>      -1.10810232       0.70248472       0.29092911 </v>
   <v>       0.70256529      -1.10826633       0.29093655 </v>
   <v>      -0.10338381      -0.10318250      -0.15959519 </v>
   <v>      -0.00038474      -0.22285643       0.00052044 </v>
   <v>      -0.38412184      -0.00039945       1.31152605 </v>
   <v>      -0.41007041      -0.00010047      -1.28103555 </v>
   <v>       0.39109006      -0.00030985       1.30918332 </v>
   <v>       0.40982849      -0.00009086      -1.28117872 </v>
   <v>       0.82225790       0.82217515       0.01021760 </v>
   <v>      -0.82335462      -0.82337718       0.00843907 </v>
   <v>      -0.82304992       0.82234044       0.00939843 </v>
   <v>       0.82238272      -0.82301263       0.00958845 </v>
   <v>       0.03905963       0.03147341       0.20388665 </v>
   <v>       0.00041267       0.00021076      -1.18172827 </v>
   <v>       1.10757207       0.70230105      -0.29260839 </v>
   <v>      -0.70252025      -1.10782533      -0.29194094 </v>
   <v>       0.11260047      -0.11283301       0.15641308 </v>
   <v>      -0.11088229       0.10752435      -0.15533983 </v>
   <v>      -0.11270338      -0.11279880       0.15645284 </v>
   <v>      -1.10785257       0.70213690      -0.29213492 </v>
   <v>       0.70235753      -1.10801628      -0.29227845 </v>
   <v>       0.11523520       0.11543610      -0.15139791 </v>
   <v>      -0.22268516      -0.00043463       0.00046223 </v>
   <v>       0.22239617      -0.00040604       0.00119548 </v>
   <v>      -0.00040515      -0.38497787       1.31135354 </v>
   <v>       0.00001378      -0.41014106      -1.28107711 </v>
   <v>       0.00001416      -0.00006664      -0.00824226 </v>
   <v>      -0.11275231       0.11250162       0.15643283 </v>
   <v>       0.11263381       0.11255165       0.15640249 </v>
   <v>      -0.00036846       0.22240070       0.00115676 </v>
   <v>      -0.11504143      -0.09123215       3.46031171 </v>
   <v>       0.06317692       0.05557922      -2.62872001 </v>
  </varray>
  <varray name="stress" >
   <v>      -6.74279979      -0.00056387       0.00596212 </v>
   <v>      -0.00056384      -6.74256003       0.00472540 </v>
   <v>       0.00596212       0.00472535      -6.71942670 </v>
  </varray>
  <energy>
   <i name="e_fr_energy">   -173.84542286 </i>
   <i name="e_wo_entrp">   -173.82406086 </i>
   <i name="e_0_energy">     -0.08544800 </i>
  </energy>
  <time name="totalsc">19240.2719240.45</time>
  <eigenvalues>
   <array>
    <dimension dim="1">band</dimension>
    <dimension dim="2">kpoint</dimension>
    <dimension dim="3">spin</dimension>
    <field>eigene</field>
    <field>occ</field>
    <set>
     <set comment="spin 1">
      <set comment="kpoint 1">
       <r>  -29.2523    1.0000 </r>
       <r>  -13.7651    1.0000 </r>
       <r>  -11.5482    1.0000 </r>
       <r>  -11.5478    1.0000 </r>
       <r>   -9.2785    1.0000 </r>
       <r>   -6.6191    1.0000 </r>
       <r>   -6.1012    1.0000 </r>
       <r>   -6.1011    1.0000 </r>
       <r>   -6.0951    1.0000 </r>
       <r>   -5.7867    1.0000 </r>
       <r>   -5.7867    1.0000 </r>
       <r>   -5.7855    1.0000 </r>
       <r>   -5.7188    1.0000 </r>
       <r>   -5.6669    1.0000 </r>
       <r>   -5.6584    1.0000 </r>
       <r>   -5.6584    1.0000 </r>
       <r>   -5.6581    1.0000 </r>
       <r>   -5.5953    1.0000 </r>
       <r>   -5.5941    1.0000 </r>
       <r>   -5.5807    1.0000 </r>
       <r>   -5.5699    1.0000 </r>
       <r>   -5.5699    1.0000 </r>
       <r>   -5.5695    1.0000 </r>
       <r>   -5.5249    1.0000 </r>
       <r>   -5.5238    1.0000 </r>
       <r>   -5.5236    1.0000 </r>
       <r>   -5.5210    1.0000 </r>
       <r>   -5.4941    1.0000 </r>
       <r>   -5.4941    1.0000 </r>
       <r>   -5.4924    1.0000 </r>
       <r>   -5.4878    1.0000 </r>
       <r>   -5.4877    1.0000 </r>
       <r>   -5.4876    1.0000 </r>
       <r>   -5.4873    1.0000 </r>
       <r>   -5.4855    1.0000 </r>
       <r>   -5.4517    1.0000 </r>
       <r>   -5.4515    1.0000 </r>
       <r>   -5.4434    1.0000 </r>
       <r>   -5.4434    1.0000 </r>
       <r>   -5.4407    1.0000 </r>
       <r>   -5.4406    1.0000 </r>
       <r>   -5.4406    1.0000 </r>
       <r>   -5.4403    1.0000 </r>
       <r>   -5.4050    1.0000 </r>
       <r>   -5.4026    1.0000 </r>
       <r>   -5.4026    1.0000 </r>
       <r>   -5.4022    1.0000 </r>
       <r>   -5.4005    1.0000 </r>
       <r>   -5.3974    1.0000 </r>
       <r>   -5.3974    1.0000 </r>
       <r>   -5.3952    1.0000 </r>
       <r>   -5.3808    1.0000 </r>
       <r>   -5.3798    1.0000 </r>
       <r>   -5.3798    1.0000 </r>
       <r>   -5.3643    1.0000 </r>
       <r>   -5.3029    1.0000 </r>
       <r>   -5.3018    1.0000 </r>
       <r>   -5.3018    1.0000 </r>
       <r>   -5.3003    1.0000 </r>
       <r>   -5.2899    1.0000 </r>
       <r>   -5.2896    1.0000 </r>
       <r>   -5.2896    1.0000 </r>
       <r>   -5.2760    1.0000 </r>
       <r>   -5.2759    1.0000 </r>
       <r>   -5.2736    1.0000 </r>
       <r>   -5.2619    1.0000 </r>
       <r>   -5.2606    1.0000 </r>
       <r>   -5.1893    1.0000 </r>
       <r>   -5.1810    1.0000 </r>
       <r>   -5.1802    1.0000 </r>
       <r>   -5.1799    1.0000 </r>
       <r>   -5.1542    1.0000 </r>
       <r>   -5.1528    1.0000 </r>
       <r>   -5.1528    1.0000 </r>
       <r>   -5.1508    1.0000 </r>
       <r>   -5.1471    1.0000 </r>
       <r>   -5.1367    1.0000 </r>
       <r>   -5.1365    1.0000 </r>
       <r>   -5.1359    1.0000 </r>
       <r>   -5.1205    1.0000 </r>
       <r>   -5.0978    1.0000 </r>
       <r>   -5.0972    1.0000 </r>
       <r>   -5.0971    1.0000 </r>
       <r>   -5.0865    1.0000 </r>
       <r>   -5.0767    1.0000 </r>
       <r>   -5.0766    1.0000 </r>
       <r>   -5.0757    1.0000 </r>
       <r>   -5.0336    1.0000 </r>
       <r>   -5.0318    1.0000 </r>
       <r>   -5.0292    1.0000 </r>
       <r>   -5.0291    1.0000 </r>
       <r>   -5.0283    1.0000 </r>
       <r>   -5.0245    1.0000 </r>
       <r>   -5.0215    1.0000 </r>
       <r>   -5.0214    1.0000 </r>
       <r>   -5.0125    1.0000 </r>
       <r>   -5.0123    1.0000 </r>
       <r>   -5.0008    1.0000 </r>
       <r>   -4.9911    1.0000 </r>
       <r>   -4.9909    1.0000 </r>
       <r>   -4.9784    1.0000 </r>
       <r>   -4.9783    1.0000 </r>
       <r>   -4.9783    1.0000 </r>
       <r>   -4.9672    1.0000 </r>
       <r>   -4.9672    1.0000 </r>
       <r>   -4.9644    1.0000 </r>
       <r>   -4.9531    1.0000 </r>
       <r>   -4.9529    1.0000 </r>
       <r>   -4.9528    1.0000 </r>
       <r>   -4.9432    1.0000 </r>
       <r>   -4.9419    1.0000 </r>
       <r>   -4.9340    1.0000 </r>
       <r>   -4.9333    1.0000 </r>
       <r>   -4.9278    1.0000 </r>
       <r>   -4.9261    1.0000 </r>
       <r>   -4.9261    1.0000 </r>
       <r>   -4.9102    1.0000 </r>
       <r>   -4.8911    1.0000 </r>
       <r>   -4.8910    1.0000 </r>
       <r>   -4.8905    1.0000 </r>
       <r>   -4.8796    1.0000 </r>
       <r>   -4.8794    1.0000 </r>
       <r>   -4.8783    1.0000 </r>
       <r>   -4.8752    1.0000 </r>
       <r>   -4.8748    1.0000 </r>
       <r>   -4.8748    1.0000 </r>
       <r>   -4.8214    1.0000 </r>
       <r>   -4.8191    1.0000 </r>
       <r>   -4.8189    1.0000 </r>
       <r>   -4.8162    1.0000 </r>
       <r>   -4.8152    1.0000 </r>
       <r>   -4.8146    1.0000 </r>
       <r>   -4.8042    1.0000 </r>
       <r>   -4.8042    1.0000 </r>
       <r>   -4.8031    1.0000 </r>
       <r>   -4.7668    0.9999 </r>
       <r>   -4.7655    0.9999 </r>
       <r>   -4.7646    0.9999 </r>
       <r>   -4.7639    0.9999 </r>
       <r>   -4.7543    0.9999 </r>
       <r>   -4.7533    0.9999 </r>
       <r>   -4.7340    0.9998 </r>
       <r>   -4.7104    0.9996 </r>
       <r>   -4.7103    0.9996 </r>
       <r>   -4.7099    0.9996 </r>
       <r>   -4.6989    0.9995 </r>
       <r>   -4.6984    0.9995 </r>
       <r>   -4.6796    0.9993 </r>
       <r>   -4.6718    0.9991 </r>
       <r>   -4.6716    0.9991 </r>
       <r>   -4.6625    0.9990 </r>
       <r>   -4.6558    0.9988 </r>
       <r>   -4.6479    0.9987 </r>
       <r>   -4.6477    0.9987 </r>
       <r>   -4.6473    0.9987 </r>
       <r>   -4.6462    0.9986 </r>
       <r>   -4.6454    0.9986 </r>
       <r>   -4.6454    0.9986 </r>
       <r>   -4.6277    0.9981 </r>
       <r>   -4.6244    0.9980 </r>
       <r>   -4.6239    0.9980 </r>
       <r>   -4.6238    0.9980 </r>
       <r>   -4.6232    0.9980 </r>
       <r>   -4.6210    0.9979 </r>
       <r>   -4.6185    0.9978 </r>
       <r>   -4.6185    0.9978 </r>
       <r>   -4.6148    0.9977 </r>
       <r>   -4.6142    0.9977 </r>
       <r>   -4.6029    0.9973 </r>
       <r>   -4.6009    0.9972 </r>
       <r>   -4.5831    0.9966 </r>
       <r>   -4.5825    0.9966 </r>
       <r>   -4.5703    0.9961 </r>
       <r>   -4.5703    0.9961 </r>
       <r>   -4.5695    0.9961 </r>
       <r>   -4.5681    0.9960 </r>
       <r>   -4.5664    0.9960 </r>
       <r>   -4.5615    0.9958 </r>
       <r>   -4.5570    0.9957 </r>
       <r>   -4.5570    0.9957 </r>
       <r>   -4.5460    0.9953 </r>
       <r>   -4.5256    0.9951 </r>
       <r>   -4.5256    0.9951 </r>
       <r>   -4.5249    0.9951 </r>
       <r>   -4.5243    0.9951 </r>
       <r>   -4.5243    0.9951 </r>
       <r>   -4.5241    0.9951 </r>
       <r>   -4.5239    0.9951 </r>
       <r>   -4.5218    0.9951 </r>
       <r>   -4.5217    0.9951 </r>
       <r>   -4.4805    0.9972 </r>
       <r>   -4.4789    0.9973 </r>
       <r>   -4.4788    0.9974 </r>
       <r>   -4.4765    0.9976 </r>
       <r>   -4.4763    0.9977 </r>
       <r>   -4.4638    0.9995 </r>
       <r>   -4.4537    1.0015 </r>
       <r>   -4.4537    1.0015 </r>
       <r>   -4.4512    1.0020 </r>
       <r>   -4.4411    1.0045 </r>
       <r>   -4.4407    1.0046 </r>
       <r>   -4.4318    1.0072 </r>
       <r>   -4.4291    1.0081 </r>
       <r>   -4.4291    1.0081 </r>
       <r>   -4.4206    1.0110 </r>
       <r>   -4.4201    1.0112 </r>
       <r>   -4.4201    1.0112 </r>
       <r>   -4.4180    1.0120 </r>
       <r>   -4.4180    1.0120 </r>
       <r>   -4.4123    1.0142 </r>
       <r>   -4.3954    1.0214 </r>
       <r>   -4.3827    1.0274 </r>
       <r>   -4.3814    1.0280 </r>
       <r>   -4.3813    1.0280 </r>
       <r>   -4.3809    1.0282 </r>
       <r>   -4.3767    1.0302 </r>
       <r>   -4.3737    1.0317 </r>
       <r>   -4.3736    1.0317 </r>
       <r>   -4.3723    1.0324 </r>
       <r>   -4.3439    1.0449 </r>
       <r>   -4.3438    1.0450 </r>
       <r>   -4.3313    1.0490 </r>
       <r>   -4.3149    1.0516 </r>
       <r>   -4.3147    1.0516 </r>
       <r>   -4.3106    1.0516 </r>
       <r>   -4.3101    1.0516 </r>
       <r>   -4.3094    1.0515 </r>
       <r>   -4.3087    1.0515 </r>
       <r>   -4.3087    1.0515 </r>
       <r>   -4.3062    1.0513 </r>
       <r>   -4.3012    1.0504 </r>
       <r>   -4.3010    1.0504 </r>
       <r>   -4.2993    1.0500 </r>
       <r>   -4.2956    1.0489 </r>
       <r>   -4.2940    1.0483 </r>
       <r>   -4.2935    1.0481 </r>
       <r>   -4.2935    1.0481 </r>
       <r>   -4.2905    1.0468 </r>
       <r>   -4.2894    1.0463 </r>
       <r>   -4.2894    1.0463 </r>
       <r>   -4.2745    1.0361 </r>
       <r>   -4.2724    1.0341 </r>
       <r>   -4.2624    1.0230 </r>
       <r>   -4.2624    1.0229 </r>
       <r>   -4.2563    1.0146 </r>
       <r>   -4.2561    1.0143 </r>
       <r>   -4.2561    1.0142 </r>
       <r>   -4.2556    1.0135 </r>
       <r>   -4.2497    1.0040 </r>
       <r>   -4.2364    0.9778 </r>
       <r>   -4.2346    0.9737 </r>
       <r>   -4.2283    0.9587 </r>
       <r>   -4.2277    0.9570 </r>
       <r>   -4.2275    0.9565 </r>
       <r>   -4.2217    0.9412 </r>
       <r>   -4.2216    0.9410 </r>
       <r>   -4.2207    0.9382 </r>
       <r>   -4.2169    0.9274 </r>
       <r>   -4.2155    0.9230 </r>
       <r>   -4.2154    0.9230 </r>
       <r>   -4.2097    0.9050 </r>
       <r>   -4.2086    0.9014 </r>
       <r>   -4.2086    0.9013 </r>
       <r>   -4.2085    0.9009 </r>
       <r>   -4.2054    0.8907 </r>
       <r>   -4.1937    0.8481 </r>
       <r>   -4.1907    0.8366 </r>
       <r>   -4.1900    0.8338 </r>
       <r>   -4.1897    0.8328 </r>
       <r>   -4.1896    0.8324 </r>
       <r>   -4.1871    0.8222 </r>
       <r>   -4.1864    0.8195 </r>
       <r>   -4.1646    0.7229 </r>
       <r>   -4.1645    0.7223 </r>
       <r>   -4.1634    0.7173 </r>
       <r>   -4.1524    0.6636 </r>
       <r>   -4.1524    0.6634 </r>
       <r>   -4.1478    0.6406 </r>
       <r>   -4.1410    0.6057 </r>
       <r>   -4.1410    0.6055 </r>
       <r>   -4.1404    0.6028 </r>
       <r>   -4.1267    0.5307 </r>
       <r>   -4.1006    0.3936 </r>
       <r>   -4.1006    0.3936 </r>
       <r>   -4.1001    0.3910 </r>
       <r>   -4.0967    0.3738 </r>
       <r>   -4.0845    0.3125 </r>
       <r>   -4.0823    0.3016 </r>
       <r>   -4.0758    0.2707 </r>
       <r>   -3.9401   -0.0505 </r>
       <r>   -3.8700   -0.0326 </r>
       <r>   -3.7909   -0.0021 </r>
       <r>   -3.7907   -0.0021 </r>
       <r>   -3.7899   -0.0019 </r>
       <r>   -3.4635    0.0001 </r>
       <r>   -3.4635    0.0001 </r>
       <r>   -3.4216    0.0000 </r>
       <r>   -3.0278    0.0000 </r>
       <r>   -3.0278    0.0000 </r>
       <r>   -2.9982    0.0000 </r>
       <r>   -2.9859    0.0000 </r>
       <r>   -2.9857    0.0000 </r>
       <r>   -2.9855    0.0000 </r>
       <r>   -2.9023    0.0000 </r>
       <r>   -2.8622    0.0000 </r>
       <r>   -2.5252    0.0000 </r>
       <r>   -2.5246    0.0000 </r>
       <r>   -2.4911    0.0000 </r>
       <r>   -2.2659    0.0000 </r>
       <r>   -2.0947    0.0000 </r>
       <r>   -2.0946    0.0000 </r>
       <r>   -2.0898    0.0000 </r>
       <r>   -1.9253    0.0000 </r>
       <r>   -1.9246    0.0000 </r>
       <r>   -1.8710    0.0000 </r>
       <r>   -1.8307    0.0000 </r>
       <r>   -1.8222    0.0000 </r>
       <r>   -1.7818    0.0000 </r>
       <r>   -1.7795    0.0000 </r>
       <r>   -1.7051    0.0000 </r>
       <r>   -1.6167    0.0000 </r>
       <r>   -1.5241    0.0000 </r>
       <r>   -1.5162    0.0000 </r>
       <r>   -1.5139    0.0000 </r>
       <r>   -1.4912    0.0000 </r>
       <r>   -1.1581    0.0000 </r>
       <r>   -1.1445    0.0000 </r>
       <r>   -1.0603    0.0000 </r>
       <r>   -0.9627    0.0000 </r>
       <r>   -0.9623    0.0000 </r>
       <r>   -0.9603    0.0000 </r>
       <r>   -0.9154    0.0000 </r>
       <r>   -0.9041    0.0000 </r>
       <r>   -0.8865    0.0000 </r>
       <r>   -0.7876    0.0000 </r>
       <r>   -0.6112    0.0000 </r>
      </set>
     </set>
    </set>
   </array>
  </eigenvalues>
  <separator name="orbital magnetization" >
   <v name="MAGDIPOLOUT">      0.00000000      0.00000000      0.00000000</v>
  </separator>
  <dos>
   <i name="efermi">     -4.12085649 </i>
   <total>
    <array>
     <dimension dim="1">gridpoints</dimension>
     <dimension dim="2">spin</dimension>
     <field>energy</field>
     <field>total</field>
     <field>integrated</field>
     <set>
      <set comment="spin 1">
       <r>   -31.2523     0.0000     0.0000 </r>
       <r>   -31.1435     0.0000     0.0000 </r>
       <r>   -31.0347     0.0000     0.0000 </r>
       <r>   -30.9259     0.0000     0.0000 </r>
       <r>   -30.8171     0.0000     0.0000 </r>
       <r>   -30.7083     0.0000     0.0000 </r>
       <r>   -30.5995     0.0000     0.0000 </r>
       <r>   -30.4907     0.0000     0.0000 </r>
       <r>   -30.3819     0.0000     0.0000 </r>
       <r>   -30.2731     0.0000     0.0000 </r>
       <r>   -30.1643     0.0000     0.0000 </r>
       <r>   -30.0555     0.0000     0.0000 </r>
       <r>   -29.9467     0.0004     0.0000 </r>
       <r>   -29.8379     0.0072     0.0008 </r>
       <r>   -29.7291     0.0452     0.0057 </r>
       <r>   -29.6203     0.0138     0.0072 </r>
       <r>   -29.5115    -0.5933    -0.0573 </r>
       <r>   -29.4026    -0.0793    -0.0659 </r>
       <r>   -29.2938     5.8912     0.5750 </r>
       <r>   -29.1850     9.9044     1.6527 </r>
       <r>   -29.0762     4.0987     2.0986 </r>
       <r>   -28.9674    -0.5964     2.0338 </r>
       <r>   -28.8586    -0.3993     1.9903 </r>
       <r>   -28.7498     0.0524     1.9960 </r>
       <r>   -28.6410     0.0325     1.9995 </r>
       <r>   -28.5322     0.0040     2.0000 </r>
       <r>   -28.4234     0.0002     2.0000 </r>
       <r>   -28.3146     0.0000     2.0000 </r>
       <r>   -28.2058     0.0000     2.0000 </r>
       <r>   -28.0970     0.0000     2.0000 </r>
       <r>   -27.9882     0.0000     2.0000 </r>
       <r>   -27.8794     0.0000     2.0000 </r>
       <r>   -27.7706     0.0000     2.0000 </r>
       <r>   -27.6618     0.0000     2.0000 </r>
       <r>   -27.5530     0.0000     2.0000 </r>
       <r>   -27.4442     0.0000     2.0000 </r>
       <r>   -27.3354     0.0000     2.0000 </r>
       <r>   -27.2266     0.0000     2.0000 </r>
       <r>   -27.1178     0.0000     2.0000 </r>
       <r>   -27.0090     0.0000     2.0000 </r>
       <r>   -26.9002     0.0000     2.0000 </r>
       <r>   -26.7914     0.0000     2.0000 </r>
       <r>   -26.6826     0.0000     2.0000 </r>
       <r>   -26.5738     0.0000     2.0000 </r>
       <r>   -26.4649     0.0000     2.0000 </r>
       <r>   -26.3561     0.0000     2.0000 </r>
       <r>   -26.2473     0.0000     2.0000 </r>
       <r>   -26.1385     0.0000     2.0000 </r>
       <r>   -26.0297     0.0000     2.0000 </r>
       <r>   -25.9209     0.0000     2.0000 </r>
       <r>   -25.8121     0.0000     2.0000 </r>
       <r>   -25.7033     0.0000     2.0000 </r>
       <r>   -25.5945     0.0000     2.0000 </r>
       <r>   -25.4857     0.0000     2.0000 </r>
       <r>   -25.3769     0.0000     2.0000 </r>
       <r>   -25.2681     0.0000     2.0000 </r>
       <r>   -25.1593     0.0000     2.0000 </r>
       <r>   -25.0505     0.0000     2.0000 </r>
       <r>   -24.9417     0.0000     2.0000 </r>
       <r>   -24.8329     0.0000     2.0000 </r>
       <r>   -24.7241     0.0000     2.0000 </r>
       <r>   -24.6153     0.0000     2.0000 </r>
       <r>   -24.5065     0.0000     2.0000 </r>
       <r>   -24.3977     0.0000     2.0000 </r>
       <r>   -24.2889     0.0000     2.0000 </r>
       <r>   -24.1801     0.0000     2.0000 </r>
       <r>   -24.0713     0.0000     2.0000 </r>
       <r>   -23.9625     0.0000     2.0000 </r>
       <r>   -23.8537     0.0000     2.0000 </r>
       <r>   -23.7449     0.0000     2.0000 </r>
       <r>   -23.6360     0.0000     2.0000 </r>
       <r>   -23.5272     0.0000     2.0000 </r>
       <r>   -23.4184     0.0000     2.0000 </r>
       <r>   -23.3096     0.0000     2.0000 </r>
       <r>   -23.2008     0.0000     2.0000 </r>
       <r>   -23.0920     0.0000     2.0000 </r>
       <r>   -22.9832     0.0000     2.0000 </r>
       <r>   -22.8744     0.0000     2.0000 </r>
       <r>   -22.7656     0.0000     2.0000 </r>
       <r>   -22.6568     0.0000     2.0000 </r>
       <r>   -22.5480     0.0000     2.0000 </r>
       <r>   -22.4392     0.0000     2.0000 </r>
       <r>   -22.3304     0.0000     2.0000 </r>
       <r>   -22.2216     0.0000     2.0000 </r>
       <r>   -22.1128     0.0000     2.0000 </r>
       <r>   -22.0040     0.0000     2.0000 </r>
       <r>   -21.8952     0.0000     2.0000 </r>
       <r>   -21.7864     0.0000     2.0000 </r>
       <r>   -21.6776     0.0000     2.0000 </r>
       <r>   -21.5688     0.0000     2.0000 </r>
       <r>   -21.4600     0.0000     2.0000 </r>
       <r>   -21.3512     0.0000     2.0000 </r>
       <r>   -21.2424     0.0000     2.0000 </r>
       <r>   -21.1336     0.0000     2.0000 </r>
       <r>   -21.0248     0.0000     2.0000 </r>
       <r>   -20.9160     0.0000     2.0000 </r>
       <r>   -20.8072     0.0000     2.0000 </r>
       <r>   -20.6983     0.0000     2.0000 </r>
       <r>   -20.5895     0.0000     2.0000 </r>
       <r>   -20.4807     0.0000     2.0000 </r>
       <r>   -20.3719     0.0000     2.0000 </r>
       <r>   -20.2631     0.0000     2.0000 </r>
       <r>   -20.1543     0.0000     2.0000 </r>
       <r>   -20.0455     0.0000     2.0000 </r>
       <r>   -19.9367     0.0000     2.0000 </r>
       <r>   -19.8279     0.0000     2.0000 </r>
       <r>   -19.7191     0.0000     2.0000 </r>
       <r>   -19.6103     0.0000     2.0000 </r>
       <r>   -19.5015     0.0000     2.0000 </r>
       <r>   -19.3927     0.0000     2.0000 </r>
       <r>   -19.2839     0.0000     2.0000 </r>
       <r>   -19.1751     0.0000     2.0000 </r>
       <r>   -19.0663     0.0000     2.0000 </r>
       <r>   -18.9575     0.0000     2.0000 </r>
       <r>   -18.8487     0.0000     2.0000 </r>
       <r>   -18.7399     0.0000     2.0000 </r>
       <r>   -18.6311     0.0000     2.0000 </r>
       <r>   -18.5223     0.0000     2.0000 </r>
       <r>   -18.4135     0.0000     2.0000 </r>
       <r>   -18.3047     0.0000     2.0000 </r>
       <r>   -18.1959     0.0000     2.0000 </r>
       <r>   -18.0871     0.0000     2.0000 </r>
       <r>   -17.9783     0.0000     2.0000 </r>
       <r>   -17.8695     0.0000     2.0000 </r>
       <r>   -17.7606     0.0000     2.0000 </r>
       <r>   -17.6518     0.0000     2.0000 </r>
       <r>   -17.5430     0.0000     2.0000 </r>
       <r>   -17.4342     0.0000     2.0000 </r>
       <r>   -17.3254     0.0000     2.0000 </r>
       <r>   -17.2166     0.0000     2.0000 </r>
       <r>   -17.1078     0.0000     2.0000 </r>
       <r>   -16.9990     0.0000     2.0000 </r>
       <r>   -16.8902     0.0000     2.0000 </r>
       <r>   -16.7814     0.0000     2.0000 </r>
       <r>   -16.6726     0.0000     2.0000 </r>
       <r>   -16.5638     0.0000     2.0000 </r>
       <r>   -16.4550     0.0000     2.0000 </r>
       <r>   -16.3462     0.0000     2.0000 </r>
       <r>   -16.2374     0.0000     2.0000 </r>
       <r>   -16.1286     0.0000     2.0000 </r>
       <r>   -16.0198     0.0000     2.0000 </r>
       <r>   -15.9110     0.0000     2.0000 </r>
       <r>   -15.8022     0.0000     2.0000 </r>
       <r>   -15.6934     0.0000     2.0000 </r>
       <r>   -15.5846     0.0000     2.0000 </r>
       <r>   -15.4758     0.0000     2.0000 </r>
       <r>   -15.3670     0.0000     2.0000 </r>
       <r>   -15.2582     0.0000     2.0000 </r>
       <r>   -15.1494     0.0000     2.0000 </r>
       <r>   -15.0406     0.0000     2.0000 </r>
       <r>   -14.9317     0.0000     2.0000 </r>
       <r>   -14.8229     0.0000     2.0000 </r>
       <r>   -14.7141     0.0000     2.0000 </r>
       <r>   -14.6053     0.0000     2.0000 </r>
       <r>   -14.4965     0.0001     2.0000 </r>
       <r>   -14.3877     0.0030     2.0003 </r>
       <r>   -14.2789     0.0275     2.0033 </r>
       <r>   -14.1701     0.0600     2.0099 </r>
       <r>   -14.0613    -0.3173     1.9753 </r>
       <r>   -13.9525    -0.7194     1.8971 </r>
       <r>   -13.8437     3.3397     2.2604 </r>
       <r>   -13.7349     9.6811     3.3138 </r>
       <r>   -13.6261     6.6674     4.0392 </r>
       <r>   -13.5173     0.2665     4.0682 </r>
       <r>   -13.4085    -0.6726     3.9950 </r>
       <r>   -13.2997    -0.0149     3.9934 </r>
       <r>   -13.1909     0.0508     3.9989 </r>
       <r>   -13.0821     0.0091     3.9999 </r>
       <r>   -12.9733     0.0006     4.0000 </r>
       <r>   -12.8645     0.0000     4.0000 </r>
       <r>   -12.7557     0.0000     4.0000 </r>
       <r>   -12.6469     0.0000     4.0000 </r>
       <r>   -12.5381     0.0000     4.0000 </r>
       <r>   -12.4293     0.0000     4.0000 </r>
       <r>   -12.3205     0.0001     4.0000 </r>
       <r>   -12.2117     0.0021     4.0002 </r>
       <r>   -12.1029     0.0269     4.0032 </r>
       <r>   -11.9940     0.1184     4.0160 </r>
       <r>   -11.8852    -0.1676     3.9978 </r>
       <r>   -11.7764    -1.5542     3.8287 </r>
       <r>   -11.6676     2.0676     4.0537 </r>
       <r>   -11.5588    15.7863     5.7713 </r>
       <r>   -11.4500    18.0190     7.7318 </r>
       <r>   -11.3412     4.2987     8.1995 </r>
       <r>   -11.2324    -1.6198     8.0233 </r>
       <r>   -11.1236    -0.3858     7.9813 </r>
       <r>   -11.0148     0.1279     7.9952 </r>
       <r>   -10.9060     0.0400     7.9996 </r>
       <r>   -10.7972     0.0037     8.0000 </r>
       <r>   -10.6884     0.0002     8.0000 </r>
       <r>   -10.5796     0.0000     8.0000 </r>
       <r>   -10.4708     0.0000     8.0000 </r>
       <r>   -10.3620     0.0000     8.0000 </r>
       <r>   -10.2532     0.0000     8.0000 </r>
       <r>   -10.1444     0.0000     8.0000 </r>
       <r>   -10.0356     0.0001     8.0000 </r>
       <r>    -9.9268     0.0016     8.0002 </r>
       <r>    -9.8180     0.0179     8.0021 </r>
       <r>    -9.7092     0.0633     8.0090 </r>
       <r>    -9.6004    -0.1577     7.9919 </r>
       <r>    -9.4916    -0.8126     7.9034 </r>
       <r>    -9.3828     1.7996     8.0992 </r>
       <r>    -9.2740     8.7208     9.0481 </r>
       <r>    -9.1652     8.2503     9.9458 </r>
       <r>    -9.0563     1.3307    10.0906 </r>
       <r>    -8.9475    -0.7980    10.0037 </r>
       <r>    -8.8387    -0.1119     9.9915 </r>
       <r>    -8.7299     0.0613     9.9982 </r>
       <r>    -8.6211     0.0151     9.9999 </r>
       <r>    -8.5123     0.0012    10.0000 </r>
       <r>    -8.4035     0.0000    10.0000 </r>
       <r>    -8.2947     0.0000    10.0000 </r>
       <r>    -8.1859     0.0000    10.0000 </r>
       <r>    -8.0771     0.0000    10.0000 </r>
       <r>    -7.9683     0.0000    10.0000 </r>
       <r>    -7.8595     0.0000    10.0000 </r>
       <r>    -7.7507     0.0000    10.0000 </r>
       <r>    -7.6419     0.0000    10.0000 </r>
       <r>    -7.5331     0.0000    10.0000 </r>
       <r>    -7.4243     0.0000    10.0000 </r>
       <r>    -7.3155     0.0004    10.0000 </r>
       <r>    -7.2067     0.0068    10.0008 </r>
       <r>    -7.0979     0.0442    10.0056 </r>
       <r>    -6.9891     0.0182    10.0076 </r>
       <r>    -6.8803    -0.5780     9.9447 </r>
       <r>    -6.7715    -0.1319     9.9303 </r>
       <r>    -6.6627     5.7810    10.5593 </r>
       <r>    -6.5539    10.0981    11.6580 </r>
       <r>    -6.4451     4.0950    12.1036 </r>
       <r>    -6.3363    -2.7242    11.8072 </r>
       <r>    -6.2274     1.8448    12.0079 </r>
       <r>    -6.1186    22.2545    14.4293 </r>
       <r>    -6.0098    26.0604    17.2647 </r>
       <r>    -5.9010     8.7326    18.2149 </r>
       <r>    -5.7922    19.6511    20.3530 </r>
       <r>    -5.6834    58.7455    26.7447 </r>
       <r>    -5.5746   140.2675    42.0064 </r>
       <r>    -5.4658   267.4858    71.1098 </r>
       <r>    -5.3570   305.0540   104.3008 </r>
       <r>    -5.2482   228.1628   129.1258 </r>
       <r>    -5.1394   211.4813   152.1358 </r>
       <r>    -5.0306   304.4840   185.2648 </r>
       <r>    -4.9218   370.5848   225.5858 </r>
       <r>    -4.8130   321.4224   260.5577 </r>
       <r>    -4.7042   301.2460   293.3344 </r>
       <r>    -4.5954   390.6592   335.8396 </r>
       <r>    -4.4866   426.1911   382.2108 </r>
       <r>    -4.3778   428.4660   428.8295 </r>
       <r>    -4.2690   529.7780   486.4713 </r>
       <r>    -4.1602   536.0998   544.8010 </r>
       <r>    -4.0514   285.6745   575.8835 </r>
       <r>    -3.9426    50.9216   581.4239 </r>
       <r>    -3.8338    15.4317   583.1030 </r>
       <r>    -3.7250    32.4649   586.6353 </r>
       <r>    -3.6162    12.8720   588.0358 </r>
       <r>    -3.5074    12.7338   589.4213 </r>
       <r>    -3.3986    28.5893   592.5319 </r>
       <r>    -3.2897    13.7014   594.0226 </r>
       <r>    -3.1809    -4.4103   593.5428 </r>
       <r>    -3.0721    20.7455   595.8000 </r>
       <r>    -2.9633    64.7582   602.8459 </r>
       <r>    -2.8545    55.2147   608.8535 </r>
       <r>    -2.7457    12.0181   610.1611 </r>
       <r>    -2.6369     0.2071   610.1836 </r>
       <r>    -2.5281    21.1161   612.4811 </r>
       <r>    -2.4193    26.8941   615.4073 </r>
       <r>    -2.3105    10.9386   616.5975 </r>
       <r>    -2.2017    11.5886   617.8584 </r>
       <r>    -2.0929    26.0208   620.6895 </r>
       <r>    -1.9841    33.3784   624.3212 </r>
       <r>    -1.8753    46.8640   629.4202 </r>
       <r>    -1.7665    57.1919   635.6429 </r>
       <r>    -1.6577    41.7294   640.1832 </r>
       <r>    -1.5489    39.3044   644.4597 </r>
       <r>    -1.4401    39.8873   648.7996 </r>
       <r>    -1.3313    12.8044   650.1927 </r>
       <r>    -1.2225     2.5341   650.4685 </r>
       <r>    -1.1137    20.4984   652.6988 </r>
       <r>    -1.0049    44.8799   657.5819 </r>
       <r>    -0.8961    62.2822   664.3584 </r>
       <r>    -0.7873    43.2942   669.0690 </r>
       <r>    -0.6785    14.2812   670.6228 </r>
       <r>    -0.5697     8.0088   671.4942 </r>
       <r>    -0.4609     4.9584   672.0337 </r>
       <r>    -0.3520     0.0744   672.0418 </r>
       <r>    -0.2432    -0.4731   671.9903 </r>
       <r>    -0.1344     0.0346   671.9941 </r>
       <r>    -0.0256     0.0468   671.9992 </r>
       <r>     0.0832     0.0072   672.0000 </r>
       <r>     0.1920     0.0004   672.0000 </r>
       <r>     0.3008     0.0000   672.0000 </r>
       <r>     0.4096     0.0000   672.0000 </r>
       <r>     0.5184     0.0000   672.0000 </r>
       <r>     0.6272     0.0000   672.0000 </r>
       <r>     0.7360     0.0000   672.0000 </r>
       <r>     0.8448     0.0000   672.0000 </r>
       <r>     0.9536     0.0000   672.0000 </r>
       <r>     1.0624     0.0000   672.0000 </r>
       <r>     1.1712     0.0000   672.0000 </r>
       <r>     1.2800     0.0000   672.0000 </r>
       <r>     1.3888     0.0000   672.0000 </r>
      </set>
     </set>
    </array>
   </total>
  </dos>
 </calculation>
 <structure name="finalpos" >
  <crystal>
   <varray name="basis" >
    <v>      30.00000000       0.00000000       0.00000000 </v>
    <v>       0.00000000      30.00000000       0.00000000 </v>
    <v>       0.00000000       0.00000000      30.00000000 </v>
   </varray>
   <i name="volume">  27000.00000000 </i>
   <varray name="rec_basis" >
    <v>       0.03333333       0.00000000       0.00000000 </v>
    <v>       0.00000000       0.03333333       0.00000000 </v>
    <v>       0.00000000       0.00000000       0.03333333 </v>
   </varray>
  </crystal>
  <varray name="positions" >
   <v>       0.44576020       0.32826710       0.41691983 </v>
   <v>       0.67173288       0.55423978       0.41691983 </v>
   <v>       0.55423980       0.32826710       0.41691983 </v>
   <v>       0.32826712       0.55423978       0.41691983 </v>
   <v>       0.50000000       0.38250690       0.34021317 </v>
   <v>       0.50000000       0.38250690       0.65978680 </v>
   <v>       0.50000000       0.27609440       0.50000000 </v>
   <v>       0.27609443       0.49999998       0.50000000 </v>
   <v>       0.72390557       0.49999998       0.50000000 </v>
   <v>       0.50000000       0.72390555       0.50000000 </v>
   <v>       0.61195280       0.38804720       0.34167483 </v>
   <v>       0.61195280       0.38804720       0.65832513 </v>
   <v>       0.38804722       0.61195278       0.34167483 </v>
   <v>       0.38804722       0.61195278       0.65832513 </v>
   <v>       0.38804720       0.38804720       0.34167483 </v>
   <v>       0.38804720       0.38804720       0.65832513 </v>
   <v>       0.61195278       0.61195278       0.34167483 </v>
   <v>       0.61195278       0.61195278       0.65832513 </v>
   <v>       0.44576020       0.32826710       0.58308023 </v>
   <v>       0.67173288       0.55423978       0.58308023 </v>
   <v>       0.55791699       0.44208301       0.41809300 </v>
   <v>       0.32826705       0.44576024       0.41691983 </v>
   <v>       0.55423973       0.67173293       0.41691983 </v>
   <v>       0.55423980       0.32826710       0.58308023 </v>
   <v>       0.32826712       0.55423978       0.58308023 </v>
   <v>       0.67173295       0.44576024       0.41691983 </v>
   <v>       0.44576027       0.67173293       0.41691983 </v>
   <v>       0.44208301       0.44208301       0.41809300 </v>
   <v>       0.50000000       0.38416601       0.50000000 </v>
   <v>       0.61749315       0.50000005       0.34021317 </v>
   <v>       0.61749315       0.50000005       0.65978680 </v>
   <v>       0.38250685       0.50000005       0.34021317 </v>
   <v>       0.38250685       0.50000005       0.65978680 </v>
   <v>       0.38317830       0.38317830       0.50000000 </v>
   <v>       0.61682172       0.61682172       0.50000000 </v>
   <v>       0.61682170       0.38317830       0.50000000 </v>
   <v>       0.38317828       0.61682172       0.50000000 </v>
   <v>       0.50000000       0.50000000       0.33478917 </v>
   <v>       0.50000000       0.50000000       0.66521087 </v>
   <v>       0.32826705       0.44576024       0.58308023 </v>
   <v>       0.55423973       0.67173293       0.58308023 </v>
   <v>       0.55791699       0.44208301       0.58190703 </v>
   <v>       0.44208298       0.55791702       0.41809300 </v>
   <v>       0.44208301       0.44208301       0.58190703 </v>
   <v>       0.67173295       0.44576024       0.58308023 </v>
   <v>       0.44576027       0.67173293       0.58308023 </v>
   <v>       0.55791702       0.55791702       0.41809300 </v>
   <v>       0.38416599       0.50000002       0.50000000 </v>
   <v>       0.61583401       0.50000002       0.50000000 </v>
   <v>       0.50000000       0.61749319       0.34021317 </v>
   <v>       0.50000000       0.61749319       0.65978680 </v>
   <v>       0.50000000       0.50000000       0.50000000 </v>
   <v>       0.44208298       0.55791702       0.58190703 </v>
   <v>       0.55791702       0.55791702       0.58190703 </v>
   <v>       0.50000000       0.61583404       0.50000000 </v>
   <v>       0.50559250       0.50452070       0.24416843 </v>
   <v>       0.50641410       0.50518483       0.20658327 </v>
  </varray>
  <varray name="selective"  type="logical" >
   <v type="logical" >  F  F  F </v>
   <v type="logical" >  F  F  F </v>
   <v type="logical" >  F  F  F </v>
   <v type="logical" >  F  F  F </v>
   <v type="logical" >  F  F  F </v>
   <v type="logical" >  F  F  F </v>
   <v type="logical" >  F  F  F </v>
   <v type="logical" >  F  F  F </v>
   <v type="logical" >  F  F  F </v>
   <v type="logical" >  F  F  F </v>
   <v type="logical" >  F  F  F </v>
   <v type="logical" >  F  F  F </v>
   <v type="logical" >  F  F  F </v>
   <v type="logical" >  F  F  F </v>
   <v type="logical" >  F  F  F </v>
   <v type="logical" >  F  F  F </v>
   <v type="logical" >  F  F  F </v>
   <v type="logical" >  F  F  F </v>
   <v type="logical" >  F  F  F </v>
   <v type="logical" >  F  F  F </v>
   <v type="logical" >  F  F  F </v>
   <v type="logical" >  F  F  F </v>
   <v type="logical" >  F  F  F </v>
   <v type="logical" >  F  F  F </v>
   <v type="logical" >  F  F  F </v>
   <v type="logical" >  F  F  F </v>
   <v type="logical" >  F  F  F </v>
   <v type="logical" >  F  F  F </v>
   <v type="logical" >  F  F  F </v>
   <v type="logical" >  F  F  F </v>
   <v type="logical" >  F  F  F </v>
   <v type="logical" >  F  F  F </v>
   <v type="logical" >  F  F  F </v>
   <v type="logical" >  F  F  F </v>
   <v type="logical" >  F  F  F </v>
   <v type="logical" >  F  F  F </v>
   <v type="logical" >  F  F  F </v>
   <v type="logical" >  F  F  F </v>
   <v type="logical" >  F  F  F </v>
   <v type="logical" >  F  F  F </v>
   <v type="logical" >  F  F  F </v>
   <v type="logical" >  F  F  F </v>
   <v type="logical" >  F  F  F </v>
   <v type="logical" >  F  F  F </v>
   <v type="logical" >  F  F  F </v>
   <v type="logical" >  F  F  F </v>
   <v type="logical" >  F  F  F </v>
   <v type="logical" >  F  F  F </v>
   <v type="logical" >  F  F  F </v>
   <v type="logical" >  F  F  F </v>
   <v type="logical" >  F  F  F </v>
   <v type="logical" >  F  F  F </v>
   <v type="logical" >  F  F  F </v>
   <v type="logical" >  F  F  F </v>
   <v type="logical" >  F  F  F </v>
   <v type="logical" >  F  F  F </v>
   <v type="logical" >  F  F  F </v>
  </varray>
  <nose>
   <v>      -3.00000000       0.00000000       0.00010000       0.00010000 </v>
  </nose>
 </structure>
</modeling>
