  57  57   0   0
  0.4736842E+03  0.3000000E-08  0.3000000E-08  0.3000000E-08  0.5000000E-15
  1.000000000000000E-004
  CAR 
 6_Pd100_top_free_z(O)                   
      1.34321365    -30.24385777  301     -4.15272523      1.00000000
    -30.244  0.0000E+00  0.0000E+00
    -30.139  0.0000E+00  0.0000E+00
    -30.033  0.0000E+00  0.0000E+00
    -29.928  0.2440E-27  0.2569E-28
    -29.823  0.1072E-23  0.1129E-24
    -29.717  0.2666E-20  0.2808E-21
    -29.612  0.3741E-17  0.3941E-18
    -29.507  0.2952E-14  0.3113E-15
    -29.402  0.1307E-11  0.1379E-12
    -29.296  0.3217E-09  0.3401E-10
    -29.191  0.4367E-07  0.4632E-08
    -29.086  0.3225E-05  0.3441E-06
    -28.980  0.1265E-03  0.1367E-04
    -28.875  0.2525E-02  0.2796E-03
    -28.770  0.2313E-01  0.2715E-02
    -28.665  0.6450E-01  0.9506E-02
    -28.559 -0.2021E+00 -0.1177E-01
    -28.454 -0.8208E+00 -0.9820E-01
    -28.349  0.1849E+01  0.9649E-01
    -28.243  0.8633E+01  0.1005E+01
    -28.138  0.8580E+01  0.1909E+01
    -28.033  0.1793E+01  0.2098E+01
    -27.927 -0.8214E+00  0.2011E+01
    -27.822 -0.1960E+00  0.1991E+01
    -27.717  0.6456E-01  0.1997E+01
    -27.612  0.2273E-01  0.2000E+01
    -27.506  0.2461E-02  0.2000E+01
    -27.401  0.1225E-03  0.2000E+01
    -27.296  0.3101E-05  0.2000E+01
    -27.190  0.4175E-07  0.2000E+01
    -27.085  0.3058E-09  0.2000E+01
    -26.980  0.1236E-11  0.2000E+01
    -26.875  0.2109E-14  0.2000E+01
    -26.769  0.0000E+00  0.2000E+01
    -26.664  0.0000E+00  0.2000E+01
    -26.559  0.0000E+00  0.2000E+01
    -26.453  0.0000E+00  0.2000E+01
    -26.348  0.0000E+00  0.2000E+01
    -26.243  0.0000E+00  0.2000E+01
    -26.138  0.0000E+00  0.2000E+01
    -26.032  0.0000E+00  0.2000E+01
    -25.927  0.0000E+00  0.2000E+01
    -25.822  0.0000E+00  0.2000E+01
    -25.716  0.0000E+00  0.2000E+01
    -25.611  0.0000E+00  0.2000E+01
    -25.506  0.0000E+00  0.2000E+01
    -25.401  0.0000E+00  0.2000E+01
    -25.295  0.0000E+00  0.2000E+01
    -25.190  0.0000E+00  0.2000E+01
    -25.085  0.0000E+00  0.2000E+01
    -24.979  0.0000E+00  0.2000E+01
    -24.874  0.0000E+00  0.2000E+01
    -24.769  0.0000E+00  0.2000E+01
    -24.663  0.0000E+00  0.2000E+01
    -24.558  0.0000E+00  0.2000E+01
    -24.453  0.0000E+00  0.2000E+01
    -24.348  0.0000E+00  0.2000E+01
    -24.242  0.0000E+00  0.2000E+01
    -24.137  0.0000E+00  0.2000E+01
    -24.032  0.0000E+00  0.2000E+01
    -23.926  0.0000E+00  0.2000E+01
    -23.821  0.0000E+00  0.2000E+01
    -23.716  0.0000E+00  0.2000E+01
    -23.611  0.0000E+00  0.2000E+01
    -23.505  0.0000E+00  0.2000E+01
    -23.400  0.0000E+00  0.2000E+01
    -23.295  0.0000E+00  0.2000E+01
    -23.189  0.0000E+00  0.2000E+01
    -23.084  0.0000E+00  0.2000E+01
    -22.979  0.0000E+00  0.2000E+01
    -22.874  0.0000E+00  0.2000E+01
    -22.768  0.0000E+00  0.2000E+01
    -22.663  0.0000E+00  0.2000E+01
    -22.558  0.0000E+00  0.2000E+01
    -22.452  0.0000E+00  0.2000E+01
    -22.347  0.0000E+00  0.2000E+01
    -22.242  0.0000E+00  0.2000E+01
    -22.137  0.0000E+00  0.2000E+01
    -22.031  0.0000E+00  0.2000E+01
    -21.926  0.0000E+00  0.2000E+01
    -21.821  0.0000E+00  0.2000E+01
    -21.715  0.0000E+00  0.2000E+01
    -21.610  0.0000E+00  0.2000E+01
    -21.505  0.0000E+00  0.2000E+01
    -21.399  0.0000E+00  0.2000E+01
    -21.294  0.0000E+00  0.2000E+01
    -21.189  0.0000E+00  0.2000E+01
    -21.084  0.0000E+00  0.2000E+01
    -20.978  0.0000E+00  0.2000E+01
    -20.873  0.0000E+00  0.2000E+01
    -20.768  0.0000E+00  0.2000E+01
    -20.662  0.0000E+00  0.2000E+01
    -20.557  0.0000E+00  0.2000E+01
    -20.452  0.0000E+00  0.2000E+01
    -20.347  0.0000E+00  0.2000E+01
    -20.241  0.0000E+00  0.2000E+01
    -20.136  0.0000E+00  0.2000E+01
    -20.031  0.0000E+00  0.2000E+01
    -19.925  0.0000E+00  0.2000E+01
    -19.820  0.0000E+00  0.2000E+01
    -19.715  0.0000E+00  0.2000E+01
    -19.610  0.0000E+00  0.2000E+01
    -19.504  0.0000E+00  0.2000E+01
    -19.399  0.0000E+00  0.2000E+01
    -19.294  0.0000E+00  0.2000E+01
    -19.188  0.0000E+00  0.2000E+01
    -19.083  0.0000E+00  0.2000E+01
    -18.978  0.0000E+00  0.2000E+01
    -18.873  0.0000E+00  0.2000E+01
    -18.767  0.0000E+00  0.2000E+01
    -18.662  0.0000E+00  0.2000E+01
    -18.557  0.0000E+00  0.2000E+01
    -18.451  0.0000E+00  0.2000E+01
    -18.346  0.0000E+00  0.2000E+01
    -18.241  0.0000E+00  0.2000E+01
    -18.135  0.0000E+00  0.2000E+01
    -18.030  0.0000E+00  0.2000E+01
    -17.925  0.0000E+00  0.2000E+01
    -17.820  0.0000E+00  0.2000E+01
    -17.714  0.0000E+00  0.2000E+01
    -17.609  0.0000E+00  0.2000E+01
    -17.504  0.0000E+00  0.2000E+01
    -17.398  0.0000E+00  0.2000E+01
    -17.293  0.0000E+00  0.2000E+01
    -17.188  0.0000E+00  0.2000E+01
    -17.083  0.0000E+00  0.2000E+01
    -16.977  0.0000E+00  0.2000E+01
    -16.872  0.0000E+00  0.2000E+01
    -16.767  0.0000E+00  0.2000E+01
    -16.661  0.0000E+00  0.2000E+01
    -16.556  0.0000E+00  0.2000E+01
    -16.451  0.0000E+00  0.2000E+01
    -16.346  0.0000E+00  0.2000E+01
    -16.240  0.0000E+00  0.2000E+01
    -16.135  0.0000E+00  0.2000E+01
    -16.030  0.0000E+00  0.2000E+01
    -15.924  0.0000E+00  0.2000E+01
    -15.819  0.0000E+00  0.2000E+01
    -15.714  0.0000E+00  0.2000E+01
    -15.609  0.0000E+00  0.2000E+01
    -15.503  0.0000E+00  0.2000E+01
    -15.398  0.0000E+00  0.2000E+01
    -15.293  0.0000E+00  0.2000E+01
    -15.187  0.0000E+00  0.2000E+01
    -15.082  0.5971E-25  0.2000E+01
    -14.977  0.1814E-21  0.2000E+01
    -14.871  0.3115E-18  0.2000E+01
    -14.766  0.3012E-15  0.2000E+01
    -14.661  0.1634E-12  0.2000E+01
    -14.556  0.4954E-10  0.2000E+01
    -14.450  0.8302E-08  0.2000E+01
    -14.345  0.7611E-06  0.2000E+01
    -14.240  0.3744E-04  0.2000E+01
    -14.134  0.9550E-03  0.2000E+01
    -14.029  0.1173E-01  0.2001E+01
    -13.924  0.5537E-01  0.2007E+01
    -13.819 -0.3103E-01  0.2004E+01
    -13.713 -0.6909E+00  0.1931E+01
    -13.608  0.2101E+00  0.1953E+01
    -13.503  0.6363E+01  0.2623E+01
    -13.397  0.9889E+01  0.3664E+01
    -13.292  0.4111E+01  0.4097E+01
    -13.187 -0.5577E+00  0.4039E+01
    -13.082 -0.4535E+00  0.3991E+01
    -12.976  0.4164E-01  0.3995E+01
    -12.871  0.3939E-01  0.3999E+01
    -12.766  0.5935E-02  0.4000E+01
    -12.660  0.3816E-03  0.4000E+01
    -12.555  0.1219E-04  0.4000E+01
    -12.450  0.1409E-05  0.4000E+01
    -12.345  0.5526E-04  0.4000E+01
    -12.239  0.1307E-02  0.4000E+01
    -12.134  0.1469E-01  0.4002E+01
    -12.029  0.6009E-01  0.4008E+01
    -11.923 -0.7369E-01  0.4000E+01
    -11.818 -0.7578E+00  0.3920E+01
    -11.713  0.6396E+00  0.3988E+01
    -11.607  0.7175E+01  0.4743E+01
    -11.502  0.9670E+01  0.5761E+01
    -11.397  0.2938E+01  0.6071E+01
    -11.292 -0.1363E+01  0.5927E+01
    -11.186  0.3208E+01  0.6265E+01
    -11.081  0.9776E+01  0.7294E+01
    -10.976  0.6953E+01  0.8026E+01
    -10.870  0.5606E+00  0.8085E+01
    -10.765 -0.9013E+00  0.7991E+01
    -10.660 -0.8781E+00  0.7898E+01
    -10.555  0.1544E+01  0.8061E+01
    -10.449  0.8283E+01  0.8933E+01
    -10.344  0.8916E+01  0.9871E+01
    -10.239  0.2178E+01  0.1010E+02
    -10.133 -0.8115E+00  0.1002E+02
    -10.028 -0.2380E+00  0.9990E+01
     -9.923  0.6369E-01  0.9997E+01
     -9.818  0.2544E-01  0.1000E+02
     -9.712  0.2918E-02  0.1000E+02
     -9.607  0.1521E-03  0.1000E+02
     -9.502  0.4019E-05  0.1000E+02
     -9.396  0.5634E-07  0.1000E+02
     -9.291  0.4291E-09  0.1000E+02
     -9.186  0.1803E-11  0.1000E+02
     -9.081  0.4218E-14  0.1000E+02
     -8.975  0.0000E+00  0.1000E+02
     -8.870  0.0000E+00  0.1000E+02
     -8.765  0.0000E+00  0.1000E+02
     -8.659  0.0000E+00  0.1000E+02
     -8.554  0.0000E+00  0.1000E+02
     -8.449  0.0000E+00  0.1000E+02
     -8.343  0.2669E-27  0.1000E+02
     -8.238  0.1166E-23  0.1000E+02
     -8.133  0.2881E-20  0.1000E+02
     -8.028  0.4019E-17  0.1000E+02
     -7.922  0.3154E-14  0.1000E+02
     -7.817  0.1388E-11  0.1000E+02
     -7.712  0.3395E-09  0.1000E+02
     -7.606  0.4580E-07  0.1000E+02
     -7.501  0.3361E-05  0.1000E+02
     -7.396  0.1310E-03  0.1000E+02
     -7.291  0.2600E-02  0.1000E+02
     -7.185  0.2374E-01  0.1000E+02
     -7.080  0.6797E-01  0.1001E+02
     -6.975 -0.1797E+00  0.9991E+01
     -6.869 -0.7583E+00  0.9911E+01
     -6.764  0.1628E+01  0.1008E+02
     -6.659  0.8001E+01  0.1092E+02
     -6.554  0.1143E+02  0.1213E+02
     -6.448  0.1023E+02  0.1321E+02
     -6.343  0.4138E+01  0.1364E+02
     -6.238  0.8165E+01  0.1450E+02
     -6.132  0.3171E+02  0.1784E+02
     -6.027  0.3507E+02  0.2153E+02
     -5.922  0.1994E+02  0.2363E+02
     -5.817  0.3153E+02  0.2695E+02
     -5.711  0.7111E+02  0.3444E+02
     -5.606  0.1505E+03  0.5029E+02
     -5.501  0.2589E+03  0.7755E+02
     -5.395  0.2940E+03  0.1085E+03
     -5.290  0.2451E+03  0.1343E+03
     -5.185  0.2243E+03  0.1579E+03
     -5.079  0.2787E+03  0.1873E+03
     -4.974  0.3477E+03  0.2239E+03
     -4.869  0.3391E+03  0.2596E+03
     -4.764  0.3026E+03  0.2914E+03
     -4.658  0.3500E+03  0.3283E+03
     -4.553  0.4112E+03  0.3716E+03
     -4.448  0.4161E+03  0.4154E+03
     -4.342  0.4793E+03  0.4659E+03
     -4.237  0.5509E+03  0.5239E+03
     -4.132  0.3998E+03  0.5660E+03
     -4.027  0.1317E+03  0.5798E+03
     -3.921  0.1391E+02  0.5813E+03
     -3.816  0.2046E+02  0.5835E+03
     -3.711  0.2094E+02  0.5857E+03
     -3.605  0.1565E+02  0.5873E+03
     -3.500  0.2555E+02  0.5900E+03
     -3.395  0.2318E+02  0.5924E+03
     -3.290  0.8289E+01  0.5933E+03
     -3.184  0.5287E+01  0.5939E+03
     -3.079  0.3579E+02  0.5976E+03
     -2.974  0.6201E+02  0.6042E+03
     -2.868  0.3563E+02  0.6079E+03
     -2.763  0.2828E+01  0.6082E+03
     -2.658  0.8425E+01  0.6091E+03
     -2.553  0.2586E+02  0.6118E+03
     -2.447  0.2500E+02  0.6145E+03
     -2.342  0.1563E+02  0.6161E+03
     -2.237  0.1375E+02  0.6176E+03
     -2.131  0.2623E+02  0.6203E+03
     -2.026  0.4117E+02  0.6247E+03
     -1.921  0.4047E+02  0.6289E+03
     -1.815  0.3220E+02  0.6323E+03
     -1.710  0.3531E+02  0.6360E+03
     -1.605  0.4147E+02  0.6404E+03
     -1.500  0.2977E+02  0.6435E+03
     -1.394  0.1877E+02  0.6455E+03
     -1.289  0.2353E+02  0.6480E+03
     -1.184  0.2351E+02  0.6505E+03
     -1.078  0.2722E+02  0.6533E+03
     -0.973  0.5645E+02  0.6593E+03
     -0.868  0.6730E+02  0.6663E+03
     -0.763  0.3574E+02  0.6701E+03
     -0.657  0.1129E+02  0.6713E+03
     -0.552  0.5787E+01  0.6719E+03
     -0.447  0.1435E+01  0.6721E+03
     -0.341 -0.5571E+00  0.6720E+03
     -0.236 -0.1095E+00  0.6720E+03
     -0.131  0.7625E-01  0.6720E+03
     -0.026  0.2385E-01  0.6720E+03
      0.080  0.2548E-02  0.6720E+03
      0.185  0.1269E-03  0.6720E+03
      0.290  0.3228E-05  0.6720E+03
      0.396  0.4369E-07  0.6720E+03
      0.501  0.3218E-09  0.6720E+03
      0.606  0.1308E-11  0.6720E+03
      0.711  0.2109E-14  0.6720E+03
      0.817  0.0000E+00  0.6720E+03
      0.922  0.0000E+00  0.6720E+03
      1.027  0.0000E+00  0.6720E+03
      1.133  0.0000E+00  0.6720E+03
      1.238  0.0000E+00  0.6720E+03
      1.343  0.0000E+00  0.6720E+03
