<?xml version="1.0" encoding="ISO-8859-1"?>
<modeling>
 <generator>
  <i name="program" type="string">vasp </i>
  <i name="version" type="string">5.4.4.18Apr17-6-g9f103f2a35  </i>
  <i name="subversion" type="string">(build Sep 03 2018 23:53:05) complex            parallel </i>
  <i name="platform" type="string">LinuxIFC </i>
  <i name="date" type="string">2021 11 27 </i>
  <i name="time" type="string">12:25:27 </i>
 </generator>
 <incar>
  <i type="string" name="SYSTEM"> 6_Pd100_top_free_z(O)</i>
  <i type="int" name="ISTART">     0</i>
  <i type="string" name="PREC">normal   			! encut=max(enmax), ngx,y,z</i>
  <i type="string" name="ALGO"> Fast     			! Mix RMM-DIIS and Dav</i>
  <i type="logical" name="ADDGRID"> F  </i>
  <i type="int" name="ISPIN">     1</i>
  <i type="int" name="ICHARG">     2</i>
  <i type="int" name="NELM">   100</i>
  <i type="int" name="NELMIN">     6</i>
  <i type="int" name="IBRION">     2</i>
  <i name="EDIFF">      0.00010000</i>
  <i name="EDIFFG">     -0.05000000</i>
  <i type="int" name="NSW">     0</i>
  <i type="int" name="ISIF">     2</i>
  <i type="int" name="ISYM">     2</i>
  <i name="ENCUT">    400.00000000</i>
  <i type="string" name="LREAL"> Auto     			! Auto or A projection done</i>
  <i type="int" name="ISMEAR">     2</i>
  <i name="SIGMA">      0.20000000</i>
  <i type="logical" name="LWAVE"> F  </i>
  <i type="logical" name="LCHARG"> F  </i>
  <v type="int" name="KPOINT_BSE">    -1     0     0     0</v>
  <i type="int" name="MAXMEM"> 10000</i>
  <i type="int" name="NELM">   100</i>
  <i type="string" name="GGA"> RP         			! Revised PBE</i>
 </incar>
 <structure name="primitive_cell" >
  <crystal>
   <varray name="basis" >
    <v>      30.00000000       0.00000000       0.00000000 </v>
    <v>       0.00000000      30.00000000       0.00000000 </v>
    <v>       0.00000000       0.00000000      30.00000000 </v>
   </varray>
   <i name="volume">  27000.00000000 </i>
   <varray name="rec_basis" >
    <v>       0.03333333       0.00000000       0.00000000 </v>
    <v>       0.00000000       0.03333333       0.00000000 </v>
    <v>       0.00000000       0.00000000       0.03333333 </v>
   </varray>
  </crystal>
  <varray name="positions" >
   <v>       0.44576020       0.32826710       0.41691983 </v>
   <v>      -0.44576020       0.32826710       0.41691983 </v>
   <v>      -0.50000000       0.38250690       0.34021317 </v>
   <v>      -0.50000000       0.27609440      -0.50000000 </v>
   <v>       0.38804720       0.38804720       0.34167483 </v>
   <v>      -0.50000000       0.38416601      -0.50000000 </v>
   <v>       0.44208300       0.44208300       0.41809300 </v>
   <v>       0.38317830       0.38317830      -0.50000000 </v>
   <v>      -0.44208300       0.44208300       0.41809300 </v>
   <v>       0.44576020       0.32826710      -0.41691977 </v>
   <v>       0.32826705       0.44576024       0.41691983 </v>
   <v>      -0.38804720       0.38804720       0.34167483 </v>
   <v>      -0.38317830       0.38317830      -0.50000000 </v>
   <v>      -0.50000000      -0.50000000       0.33478917 </v>
   <v>      -0.50000000      -0.50000000      -0.50000000 </v>
   <v>      -0.44576020       0.32826710      -0.41691977 </v>
   <v>       0.38250685      -0.49999995       0.34021317 </v>
   <v>       0.44208300       0.44208300      -0.41809297 </v>
   <v>       0.38416599      -0.49999998      -0.50000000 </v>
   <v>      -0.44208300       0.44208300      -0.41809297 </v>
   <v>       0.44208298      -0.44208298       0.41809300 </v>
   <v>       0.32826705       0.44576024      -0.41691977 </v>
   <v>      -0.50000000       0.38250690      -0.34021320 </v>
   <v>       0.32826712      -0.44576022       0.41691983 </v>
   <v>      -0.38250685      -0.49999995       0.34021317 </v>
   <v>      -0.32826705       0.44576024       0.41691983 </v>
   <v>       0.27609443       0.49999998      -0.50000000 </v>
   <v>       0.38804720       0.38804720      -0.34167487 </v>
   <v>      -0.38416599      -0.49999998      -0.50000000 </v>
   <v>      -0.44208298      -0.44208298       0.41809300 </v>
   <v>       0.44208298      -0.44208298      -0.41809297 </v>
   <v>      -0.38804720       0.38804720      -0.34167487 </v>
   <v>       0.38804722      -0.38804722       0.34167483 </v>
   <v>       0.38250685      -0.49999995      -0.34021320 </v>
   <v>       0.32826712      -0.44576022      -0.41691977 </v>
   <v>      -0.32826705       0.44576024      -0.41691977 </v>
   <v>       0.50000000      -0.38250681       0.34021317 </v>
   <v>      -0.50000000      -0.38416596      -0.50000000 </v>
   <v>      -0.44208298      -0.44208298      -0.41809297 </v>
   <v>      -0.50000000      -0.50000000      -0.33478913 </v>
   <v>       0.38317828      -0.38317828      -0.50000000 </v>
   <v>      -0.32826712      -0.44576022       0.41691983 </v>
   <v>       0.43038183      -0.34380410       0.35156547 </v>
   <v>      -0.27609443       0.49999998      -0.50000000 </v>
   <v>      -0.38804722      -0.38804722       0.34167483 </v>
   <v>      -0.38250685      -0.49999995      -0.34021320 </v>
   <v>       0.44576027      -0.32826707       0.41691983 </v>
   <v>      -0.38317828      -0.38317828      -0.50000000 </v>
   <v>      -0.32826712      -0.44576022      -0.41691977 </v>
   <v>      -0.44576027      -0.32826707       0.41691983 </v>
   <v>       0.41882203      -0.31786843       0.32691853 </v>
   <v>       0.38804722      -0.38804722      -0.34167487 </v>
   <v>      -0.50000000      -0.38250681      -0.34021320 </v>
   <v>       0.44576027      -0.32826707      -0.41691977 </v>
   <v>      -0.44576027      -0.32826707      -0.41691977 </v>
   <v>      -0.50000000      -0.27609445       0.50000000 </v>
   <v>      -0.38804722      -0.38804722      -0.34167487 </v>
  </varray>
 </structure>
 <varray name="primitive_index" >
  <v type="int" >        1 </v>
  <v type="int" >        3 </v>
  <v type="int" >        5 </v>
  <v type="int" >        7 </v>
  <v type="int" >       15 </v>
  <v type="int" >       29 </v>
  <v type="int" >       28 </v>
  <v type="int" >       34 </v>
  <v type="int" >       21 </v>
  <v type="int" >       19 </v>
  <v type="int" >       22 </v>
  <v type="int" >       11 </v>
  <v type="int" >       36 </v>
  <v type="int" >       38 </v>
  <v type="int" >       52 </v>
  <v type="int" >       24 </v>
  <v type="int" >       32 </v>
  <v type="int" >       44 </v>
  <v type="int" >       48 </v>
  <v type="int" >       42 </v>
  <v type="int" >       43 </v>
  <v type="int" >       40 </v>
  <v type="int" >        6 </v>
  <v type="int" >        4 </v>
  <v type="int" >       30 </v>
  <v type="int" >       26 </v>
  <v type="int" >        8 </v>
  <v type="int" >       16 </v>
  <v type="int" >       49 </v>
  <v type="int" >       47 </v>
  <v type="int" >       53 </v>
  <v type="int" >       12 </v>
  <v type="int" >       13 </v>
  <v type="int" >       33 </v>
  <v type="int" >       25 </v>
  <v type="int" >       45 </v>
  <v type="int" >       50 </v>
  <v type="int" >       55 </v>
  <v type="int" >       54 </v>
  <v type="int" >       39 </v>
  <v type="int" >       37 </v>
  <v type="int" >        2 </v>
  <v type="int" >       56 </v>
  <v type="int" >        9 </v>
  <v type="int" >       17 </v>
  <v type="int" >       31 </v>
  <v type="int" >       27 </v>
  <v type="int" >       35 </v>
  <v type="int" >       20 </v>
  <v type="int" >       23 </v>
  <v type="int" >       57 </v>
  <v type="int" >       14 </v>
  <v type="int" >       51 </v>
  <v type="int" >       46 </v>
  <v type="int" >       41 </v>
  <v type="int" >       10 </v>
  <v type="int" >       18 </v>
 </varray>
 <kpoints>
  <generation param="Monkhorst-Pack">
   <v type="int" name="divisions">       1        1        1 </v>
   <v name="usershift">      0.00000000       0.00000000       0.00000000 </v>
   <v name="genvec1">      1.00000000       0.00000000       0.00000000 </v>
   <v name="genvec2">      0.00000000       1.00000000       0.00000000 </v>
   <v name="genvec3">      0.00000000       0.00000000       1.00000000 </v>
   <v name="shift">      0.00000000       0.00000000       0.00000000 </v>
  </generation>
  <varray name="kpointlist" >
   <v>       0.00000000       0.00000000       0.00000000 </v>
  </varray>
  <varray name="weights" >
   <v>       1.00000000 </v>
  </varray>
 </kpoints>
 <parameters>
  <separator name="general" >
   <i type="string" name="SYSTEM">6_Pd100_top_free_z(O)</i>
   <i type="logical" name="LCOMPAT"> F  </i>
  </separator>
  <separator name="electronic" >
   <i type="string" name="PREC">normal</i>
   <i name="ENMAX">    400.00000000</i>
   <i name="ENAUG">    644.87300000</i>
   <i name="EDIFF">      0.00010000</i>
   <i type="int" name="IALGO">    68</i>
   <i type="int" name="IWAVPR">    10</i>
   <i type="int" name="NBANDS">   336</i>
   <i name="NELECT">    560.00000000</i>
   <i type="int" name="TURBO">     0</i>
   <i type="int" name="IRESTART">     0</i>
   <i type="int" name="NREBOOT">     0</i>
   <i type="int" name="NMIN">     0</i>
   <i name="EREF">      0.00000000</i>
   <separator name="electronic smearing" >
    <i type="int" name="ISMEAR">     2</i>
    <i name="SIGMA">      0.20000000</i>
    <i name="KSPACING">      0.50000000</i>
    <i type="logical" name="KGAMMA"> T  </i>
   </separator>
   <separator name="electronic projectors" >
    <i type="logical" name="LREAL"> T  </i>
    <v name="ROPT">     -0.00050000     -0.00050000     -0.00050000</v>
    <i type="int" name="LMAXPAW">  -100</i>
    <i type="int" name="LMAXMIX">     2</i>
    <i type="logical" name="NLSPLINE"> F  </i>
   </separator>
   <separator name="electronic startup" >
    <i type="int" name="ISTART">     0</i>
    <i type="int" name="ICHARG">     2</i>
    <i type="int" name="INIWAV">     1</i>
   </separator>
   <separator name="electronic spin" >
    <i type="int" name="ISPIN">     1</i>
    <i type="logical" name="LNONCOLLINEAR"> F  </i>
    <v name="MAGMOM">      1.00000000      1.00000000      1.00000000      1.00000000      1.00000000      1.00000000      1.00000000      1.00000000      1.00000000      1.00000000      1.00000000      1.00000000      1.00000000      1.00000000      1.00000000      1.00000000      1.00000000      1.00000000      1.00000000      1.00000000
      1.00000000      1.00000000      1.00000000      1.00000000      1.00000000      1.00000000      1.00000000      1.00000000      1.00000000      1.00000000      1.00000000      1.00000000      1.00000000      1.00000000      1.00000000      1.00000000      1.00000000      1.00000000      1.00000000      1.00000000
      1.00000000      1.00000000      1.00000000      1.00000000      1.00000000      1.00000000      1.00000000      1.00000000      1.00000000      1.00000000      1.00000000      1.00000000      1.00000000      1.00000000      1.00000000      1.00000000      1.00000000</v>
    <i name="NUPDOWN">     -1.00000000</i>
    <i type="logical" name="LSORBIT"> F  </i>
    <v name="SAXIS">      0.00000000      0.00000000      1.00000000</v>
    <i type="logical" name="LSPIRAL"> F  </i>
    <v name="QSPIRAL">      0.00000000      0.00000000      0.00000000</v>
    <i type="logical" name="LZEROZ"> F  </i>
   </separator>
   <separator name="electronic exchange-correlation" >
    <i type="logical" name="LASPH"> F  </i>
    <i type="logical" name="LMETAGGA"> F  </i>
   </separator>
   <separator name="electronic convergence" >
    <i type="int" name="NELM">   100</i>
    <i type="int" name="NELMDL">    -5</i>
    <i type="int" name="NELMIN">     6</i>
    <i name="ENINI">    400.00000000</i>
    <separator name="electronic convergence detail" >
     <i type="logical" name="LDIAG"> T  </i>
     <i type="logical" name="LSUBROT"> F  </i>
     <i name="WEIMIN">      0.00000000</i>
     <i name="EBREAK">      0.00000007</i>
     <i name="DEPER">      0.30000000</i>
     <i type="int" name="NRMM">     4</i>
     <i name="TIME">      0.40000000</i>
    </separator>
   </separator>
   <separator name="electronic mixer" >
    <i name="AMIX">      0.40000000</i>
    <i name="BMIX">      1.00000000</i>
    <i name="AMIN">      0.10000000</i>
    <i name="AMIX_MAG">      1.60000000</i>
    <i name="BMIX_MAG">      1.00000000</i>
    <separator name="electronic mixer details" >
     <i type="int" name="IMIX">     4</i>
     <i type="logical" name="MIXFIRST"> F  </i>
     <i type="int" name="MAXMIX">   -45</i>
     <i name="WC">    100.00000000</i>
     <i type="int" name="INIMIX">     1</i>
     <i type="int" name="MIXPRE">     1</i>
     <i type="int" name="MREMOVE">     5</i>
    </separator>
   </separator>
   <separator name="electronic dipolcorrection" >
    <i type="logical" name="LDIPOL"> F  </i>
    <i type="logical" name="LMONO"> F  </i>
    <i type="int" name="IDIPOL">     0</i>
    <i name="EPSILON">      1.00000000</i>
    <v name="DIPOL">   -100.00000000   -100.00000000   -100.00000000</v>
    <i name="EFIELD">      0.00000000</i>
   </separator>
  </separator>
  <separator name="grids" >
   <i type="int" name="NGX">   150</i>
   <i type="int" name="NGY">   150</i>
   <i type="int" name="NGZ">   150</i>
   <i type="int" name="NGXF">   300</i>
   <i type="int" name="NGYF">   300</i>
   <i type="int" name="NGZF">   300</i>
   <i type="logical" name="ADDGRID"> F  </i>
  </separator>
  <separator name="ionic" >
   <i type="int" name="NSW">     0</i>
   <i type="int" name="IBRION">    -1</i>
   <i type="int" name="MDALGO">     0</i>
   <i type="int" name="ISIF">     2</i>
   <i name="PSTRESS">      0.00000000</i>
   <i name="EDIFFG">     -0.05000000</i>
   <i type="int" name="NFREE">     1</i>
   <i name="POTIM">      0.50000000</i>
   <i name="SMASS">     -3.00000000</i>
   <i name="SCALEE">      1.00000000</i>
  </separator>
  <separator name="ionic md" >
   <i name="TEBEG">      0.00010000</i>
   <i name="TEEND">      0.00010000</i>
   <i type="int" name="NBLOCK">     1</i>
   <i type="int" name="KBLOCK">     1</i>
   <i type="int" name="NPACO">   256</i>
   <i name="APACO">     16.00000000</i>
  </separator>
  <separator name="symmetry" >
   <i type="int" name="ISYM">     2</i>
   <i name="SYMPREC">      0.00001000</i>
  </separator>
  <separator name="dos" >
   <i type="int" name="LORBIT">     0</i>
   <v name="RWIGS">     -1.00000000     -1.00000000     -1.00000000</v>
   <i type="int" name="NEDOS">   301</i>
   <i name="EMIN">     10.00000000</i>
   <i name="EMAX">    -10.00000000</i>
   <i name="EFERMI">      0.00000000</i>
  </separator>
  <separator name="writing" >
   <i type="int" name="NWRITE">     2</i>
   <i type="logical" name="LWAVE"> F  </i>
   <i type="logical" name="LDOWNSAMPLE"> F  </i>
   <i type="logical" name="LCHARG"> F  </i>
   <i type="logical" name="LPARD"> F  </i>
   <i type="logical" name="LVTOT"> F  </i>
   <i type="logical" name="LVHAR"> F  </i>
   <i type="logical" name="LELF"> F  </i>
   <i type="logical" name="LOPTICS"> F  </i>
   <v name="STM">      0.00000000      0.00000000      0.00000000      0.00000000      0.00000000      0.00000000      0.00000000</v>
  </separator>
  <separator name="performance" >
   <i type="int" name="NPAR">     1</i>
   <i type="int" name="NSIM">     4</i>
   <i type="int" name="NBLK">    -1</i>
   <i type="logical" name="LPLANE"> T  </i>
   <i type="logical" name="LSCALAPACK"> T  </i>
   <i type="logical" name="LSCAAWARE"> F  </i>
   <i type="logical" name="LSCALU"> F  </i>
   <i type="logical" name="LASYNC"> F  </i>
   <i type="logical" name="LORBITALREAL"> F  </i>
  </separator>
  <separator name="miscellaneous" >
   <i type="int" name="IDIOT">     3</i>
   <i type="int" name="ISPECIAL">     0</i>
   <i type="logical" name="LMUSIC"> F  </i>
   <v name="POMASS">    106.42000000     12.01100000     16.00000000</v>
   <v name="DARWINR">      0.00000000      0.00000000      0.00000000</v>
   <v name="DARWINV">      1.00000000      1.00000000      1.00000000</v>
   <i type="logical" name="LCORR"> T  </i>
  </separator>
  <i type="logical" name="GGA_COMPAT"> T  </i>
  <i type="logical" name="LBERRY"> F  </i>
  <i type="int" name="ICORELEVEL">     0</i>
  <i type="logical" name="LDAU"> F  </i>
  <i type="int" name="I_CONSTRAINED_M">     0</i>
  <separator name="electronic exchange-correlation" >
   <i type="string" name="GGA">RP</i>
   <i type="int" name="VOSKOWN">     0</i>
   <i type="logical" name="LHFCALC"> F  </i>
   <i type="string" name="PRECFOCK"></i>
   <i type="logical" name="LSYMGRAD"> F  </i>
   <i type="logical" name="LHFONE"> F  </i>
   <i type="logical" name="LRHFCALC"> F  </i>
   <i type="logical" name="LTHOMAS"> F  </i>
   <i type="logical" name="LMODELHF"> F  </i>
   <i name="ENCUT4O">     -1.00000000</i>
   <i type="int" name="EXXOEP">     0</i>
   <i type="int" name="FOURORBIT">     0</i>
   <i name="AEXX">      0.00000000</i>
   <i name="HFALPHA">      0.00000000</i>
   <i name="MCALPHA">      0.00000000</i>
   <i name="ALDAX">      1.00000000</i>
   <i name="AGGAX">      1.00000000</i>
   <i name="ALDAC">      1.00000000</i>
   <i name="AGGAC">      1.00000000</i>
   <i type="int" name="NKREDX">     1</i>
   <i type="int" name="NKREDY">     1</i>
   <i type="int" name="NKREDZ">     1</i>
   <i type="logical" name="SHIFTRED"> F  </i>
   <i type="logical" name="ODDONLY"> F  </i>
   <i type="logical" name="EVENONLY"> F  </i>
   <i type="int" name="LMAXFOCK">     0</i>
   <i type="int" name="NMAXFOCKAE">     0</i>
   <i type="logical" name="LFOCKAEDFT"> F  </i>
   <i name="HFSCREEN">      0.00000000</i>
   <i name="HFSCREENC">      0.00000000</i>
   <i type="int" name="NBANDSGWLOW">     0</i>
  </separator>
  <separator name="vdW DFT" >
   <i type="logical" name="LUSE_VDW"> F  </i>
   <i name="Zab_VDW">     -0.84910000</i>
   <i name="PARAM1">      0.12340000</i>
   <i name="PARAM2">      1.00000000</i>
   <i name="PARAM3">      0.00000000</i>
  </separator>
  <separator name="model GW" >
   <i type="int" name="MODEL_GW">     0</i>
   <i name="MODEL_EPS0">    284.21052632</i>
   <i name="MODEL_ALPHA">      1.00000000</i>
  </separator>
  <separator name="linear response parameters" >
   <i type="logical" name="LEPSILON"> F  </i>
   <i type="logical" name="LRPA"> F  </i>
   <i type="logical" name="LNABLA"> F  </i>
   <i type="logical" name="LVEL"> F  </i>
   <i type="int" name="KINTER">     0</i>
   <i name="CSHIFT">      0.10000000</i>
   <i name="OMEGAMAX">     -1.00000000</i>
   <i name="DEG_THRESHOLD">      0.00200000</i>
   <i name="RTIME">     -0.10000000</i>
   <i name="WPLASMAI">      0.00000000</i>
   <v name="DFIELD">      0.00000000      0.00000000      0.00000000</v>
   <v name="WPLASMA">      0.00000000      0.00000000      0.00000000      0.00000000      0.00000000      0.00000000      0.00000000      0.00000000      0.00000000</v>
  </separator>
  <separator name="orbital magnetization" >
   <i type="logical" name="NUCIND"> F  </i>
   <v name="MAGPOS">      0.00000000      0.00000000      0.00000000</v>
   <i type="logical" name="LNICSALL"> T  </i>
   <i type="logical" name="ORBITALMAG"> F  </i>
   <i type="logical" name="LMAGBLOCH"> F  </i>
   <i type="logical" name="LCHIMAG"> F  </i>
   <i type="logical" name="LGAUGE"> T  </i>
   <i type="int" name="MAGATOM">     0</i>
   <v name="MAGDIPOL">      0.00000000      0.00000000      0.00000000</v>
   <v name="AVECCONST">      0.00000000      0.00000000      0.00000000</v>
  </separator>
  <separator name="response functions" >
   <i type="logical" name="LADDER"> F  </i>
   <i type="logical" name="LRPAFORCE"> F  </i>
   <i type="logical" name="LFXC"> F  </i>
   <i type="logical" name="LHARTREE"> T  </i>
   <i type="int" name="IBSE">     0</i>
   <v type="int" name="KPOINT">    -1     0     0     0</v>
   <i type="logical" name="LTCTE"> F  </i>
   <i type="logical" name="LTETE"> F  </i>
   <i type="logical" name="LTRIPLET"> F  </i>
   <i type="logical" name="LFXCEPS"> F  </i>
   <i type="logical" name="LFXHEG"> F  </i>
   <i type="int" name="NATURALO">     2</i>
   <i type="logical" name="L2ORDER"> F  </i>
   <i type="logical" name="LMP2LT"> F  </i>
   <i type="logical" name="LUSEW"> F  </i>
   <i name="ENCUTGW">     -2.00000000</i>
   <i name="ENCUTGWSOFT">     -2.00000000</i>
   <i name="ENCUTLF">     -1.00000000</i>
   <i type="int" name="LMAXMP2">    -1</i>
   <i name="SCISSOR">      0.00000000</i>
   <i type="int" name="NOMEGA">     0</i>
   <i type="int" name="NOMEGAR">     0</i>
   <i type="int" name="NBANDSGW">    -1</i>
   <i type="int" name="NBANDSO">    -1</i>
   <i type="int" name="NBANDSV">    -1</i>
   <i type="int" name="NELM">   100</i>
   <i type="int" name="NELMHF">     1</i>
   <i type="int" name="DIM">     3</i>
   <i type="int" name="ANTIRES">     0</i>
   <i name="OMEGAMAX">    -30.00000000</i>
   <i name="OMEGAMIN">    -30.00000000</i>
   <i name="OMEGATL">   -200.00000000</i>
   <i type="int" name="OMEGAGRID">   140</i>
   <i name="CSHIFT">     -0.10000000</i>
   <i type="logical" name="SELFENERGY"> F  </i>
   <i type="logical" name="LSPECTRAL"> F  </i>
   <i type="logical" name="LSPECTRALGW"> F  </i>
   <i type="logical" name="LSINGLES"> F  </i>
   <i type="logical" name="LFERMIGW"> F  </i>
   <i type="logical" name="ODDONLYGW"> F  </i>
   <i type="logical" name="EVENONLYGW"> F  </i>
   <i type="int" name="NKREDLFX">     1</i>
   <i type="int" name="NKREDLFY">     1</i>
   <i type="int" name="NKREDLFZ">     1</i>
   <i type="int" name="MAXMEM"> 10000</i>
   <i type="int" name="TELESCOPE">     0</i>
   <i type="int" name="TAUPAR">     1</i>
   <i type="int" name="OMEGAPAR">    -1</i>
   <i name="LAMBDA">      1.00000000</i>
  </separator>
  <separator name="External order field" >
   <i name="OFIELD_KAPPA">      0.00000000</i>
   <v name="OFIELD_K">      0.00000000      0.00000000      0.00000000</v>
   <i name="OFIELD_Q6_NEAR">      0.00000000</i>
   <i name="OFIELD_Q6_FAR">      0.00000000</i>
   <i name="OFIELD_A">      0.00000000</i>
  </separator>
 </parameters>
 <atominfo>
  <atoms>      57 </atoms>
  <types>       3 </types>
  <array name="atoms" >
   <dimension dim="1">ion</dimension>
   <field type="string">element</field>
   <field type="int">atomtype</field>
   <set>
    <rc><c>Pd</c><c>   1</c></rc>
    <rc><c>Pd</c><c>   1</c></rc>
    <rc><c>Pd</c><c>   1</c></rc>
    <rc><c>Pd</c><c>   1</c></rc>
    <rc><c>Pd</c><c>   1</c></rc>
    <rc><c>Pd</c><c>   1</c></rc>
    <rc><c>Pd</c><c>   1</c></rc>
    <rc><c>Pd</c><c>   1</c></rc>
    <rc><c>Pd</c><c>   1</c></rc>
    <rc><c>Pd</c><c>   1</c></rc>
    <rc><c>Pd</c><c>   1</c></rc>
    <rc><c>Pd</c><c>   1</c></rc>
    <rc><c>Pd</c><c>   1</c></rc>
    <rc><c>Pd</c><c>   1</c></rc>
    <rc><c>Pd</c><c>   1</c></rc>
    <rc><c>Pd</c><c>   1</c></rc>
    <rc><c>Pd</c><c>   1</c></rc>
    <rc><c>Pd</c><c>   1</c></rc>
    <rc><c>Pd</c><c>   1</c></rc>
    <rc><c>Pd</c><c>   1</c></rc>
    <rc><c>Pd</c><c>   1</c></rc>
    <rc><c>Pd</c><c>   1</c></rc>
    <rc><c>Pd</c><c>   1</c></rc>
    <rc><c>Pd</c><c>   1</c></rc>
    <rc><c>Pd</c><c>   1</c></rc>
    <rc><c>Pd</c><c>   1</c></rc>
    <rc><c>Pd</c><c>   1</c></rc>
    <rc><c>Pd</c><c>   1</c></rc>
    <rc><c>Pd</c><c>   1</c></rc>
    <rc><c>Pd</c><c>   1</c></rc>
    <rc><c>Pd</c><c>   1</c></rc>
    <rc><c>Pd</c><c>   1</c></rc>
    <rc><c>Pd</c><c>   1</c></rc>
    <rc><c>Pd</c><c>   1</c></rc>
    <rc><c>Pd</c><c>   1</c></rc>
    <rc><c>Pd</c><c>   1</c></rc>
    <rc><c>Pd</c><c>   1</c></rc>
    <rc><c>Pd</c><c>   1</c></rc>
    <rc><c>Pd</c><c>   1</c></rc>
    <rc><c>Pd</c><c>   1</c></rc>
    <rc><c>Pd</c><c>   1</c></rc>
    <rc><c>Pd</c><c>   1</c></rc>
    <rc><c>Pd</c><c>   1</c></rc>
    <rc><c>Pd</c><c>   1</c></rc>
    <rc><c>Pd</c><c>   1</c></rc>
    <rc><c>Pd</c><c>   1</c></rc>
    <rc><c>Pd</c><c>   1</c></rc>
    <rc><c>Pd</c><c>   1</c></rc>
    <rc><c>Pd</c><c>   1</c></rc>
    <rc><c>Pd</c><c>   1</c></rc>
    <rc><c>Pd</c><c>   1</c></rc>
    <rc><c>Pd</c><c>   1</c></rc>
    <rc><c>Pd</c><c>   1</c></rc>
    <rc><c>Pd</c><c>   1</c></rc>
    <rc><c>Pd</c><c>   1</c></rc>
    <rc><c>C </c><c>   2</c></rc>
    <rc><c>O </c><c>   3</c></rc>
   </set>
  </array>
  <array name="atomtypes" >
   <dimension dim="1">type</dimension>
   <field type="int">atomspertype</field>
   <field type="string">element</field>
   <field>mass</field>
   <field>valence</field>
   <field type="string">pseudopotential</field>
   <set>
    <rc><c>  55</c><c>Pd</c><c>    106.42000000</c><c>     10.00000000</c><c>  PAW_PBE Pd 04Jan2005                  </c></rc>
    <rc><c>   1</c><c>C </c><c>     12.01100000</c><c>      4.00000000</c><c>  PAW_PBE C 08Apr2002                   </c></rc>
    <rc><c>   1</c><c>O </c><c>     16.00000000</c><c>      6.00000000</c><c>  PAW_PBE O 08Apr2002                   </c></rc>
   </set>
  </array>
 </atominfo>
 <structure name="initialpos" >
  <crystal>
   <varray name="basis" >
    <v>      30.00000000       0.00000000       0.00000000 </v>
    <v>       0.00000000      30.00000000       0.00000000 </v>
    <v>       0.00000000       0.00000000      30.00000000 </v>
   </varray>
   <i name="volume">  27000.00000000 </i>
   <varray name="rec_basis" >
    <v>       0.03333333       0.00000000       0.00000000 </v>
    <v>       0.00000000       0.03333333       0.00000000 </v>
    <v>       0.00000000       0.00000000       0.03333333 </v>
   </varray>
  </crystal>
  <varray name="positions" >
   <v>       0.44576020       0.32826710       0.41691983 </v>
   <v>       0.67173288       0.55423978       0.41691983 </v>
   <v>       0.55423980       0.32826710       0.41691983 </v>
   <v>       0.32826712       0.55423978       0.41691983 </v>
   <v>       0.50000000       0.38250690       0.34021317 </v>
   <v>       0.50000000       0.38250690       0.65978680 </v>
   <v>       0.50000000       0.27609440       0.50000000 </v>
   <v>       0.27609443       0.49999998       0.50000000 </v>
   <v>       0.72390557       0.49999998       0.50000000 </v>
   <v>       0.50000000       0.72390555       0.50000000 </v>
   <v>       0.61195280       0.38804720       0.34167483 </v>
   <v>       0.61195280       0.38804720       0.65832513 </v>
   <v>       0.38804722       0.61195278       0.34167483 </v>
   <v>       0.38804722       0.61195278       0.65832513 </v>
   <v>       0.38804720       0.38804720       0.34167483 </v>
   <v>       0.38804720       0.38804720       0.65832513 </v>
   <v>       0.61195278       0.61195278       0.34167483 </v>
   <v>       0.61195278       0.61195278       0.65832513 </v>
   <v>       0.44576020       0.32826710       0.58308023 </v>
   <v>       0.67173288       0.55423978       0.58308023 </v>
   <v>       0.55791699       0.44208301       0.41809300 </v>
   <v>       0.32826705       0.44576024       0.41691983 </v>
   <v>       0.55423973       0.67173293       0.41691983 </v>
   <v>       0.55423980       0.32826710       0.58308023 </v>
   <v>       0.32826712       0.55423978       0.58308023 </v>
   <v>       0.67173295       0.44576024       0.41691983 </v>
   <v>       0.44576027       0.67173293       0.41691983 </v>
   <v>       0.44208301       0.44208301       0.41809300 </v>
   <v>       0.50000000       0.38416601       0.50000000 </v>
   <v>       0.61749315       0.50000005       0.34021317 </v>
   <v>       0.61749315       0.50000005       0.65978680 </v>
   <v>       0.38250685       0.50000005       0.34021317 </v>
   <v>       0.38250685       0.50000005       0.65978680 </v>
   <v>       0.38317830       0.38317830       0.50000000 </v>
   <v>       0.61682172       0.61682172       0.50000000 </v>
   <v>       0.61682170       0.38317830       0.50000000 </v>
   <v>       0.38317828       0.61682172       0.50000000 </v>
   <v>       0.50000000       0.50000000       0.33478917 </v>
   <v>       0.50000000       0.50000000       0.66521087 </v>
   <v>       0.32826705       0.44576024       0.58308023 </v>
   <v>       0.55423973       0.67173293       0.58308023 </v>
   <v>       0.55791699       0.44208301       0.58190703 </v>
   <v>       0.44208298       0.55791702       0.41809300 </v>
   <v>       0.44208301       0.44208301       0.58190703 </v>
   <v>       0.67173295       0.44576024       0.58308023 </v>
   <v>       0.44576027       0.67173293       0.58308023 </v>
   <v>       0.55791702       0.55791702       0.41809300 </v>
   <v>       0.38416599       0.50000002       0.50000000 </v>
   <v>       0.61583401       0.50000002       0.50000000 </v>
   <v>       0.50000000       0.61749319       0.34021317 </v>
   <v>       0.50000000       0.61749319       0.65978680 </v>
   <v>       0.50000000       0.50000000       0.50000000 </v>
   <v>       0.44208298       0.55791702       0.58190703 </v>
   <v>       0.55791702       0.55791702       0.58190703 </v>
   <v>       0.50000000       0.61583404       0.50000000 </v>
   <v>       0.43038183       0.65619590       0.35156547 </v>
   <v>       0.41882203       0.68213157       0.32691853 </v>
  </varray>
  <varray name="selective"  type="logical" >
   <v type="logical" >  F  F  F </v>
   <v type="logical" >  F  F  F </v>
   <v type="logical" >  F  F  F </v>
   <v type="logical" >  F  F  F </v>
   <v type="logical" >  F  F  F </v>
   <v type="logical" >  F  F  F </v>
   <v type="logical" >  F  F  F </v>
   <v type="logical" >  F  F  F </v>
   <v type="logical" >  F  F  F </v>
   <v type="logical" >  F  F  F </v>
   <v type="logical" >  F  F  F </v>
   <v type="logical" >  F  F  F </v>
   <v type="logical" >  F  F  F </v>
   <v type="logical" >  F  F  F </v>
   <v type="logical" >  F  F  F </v>
   <v type="logical" >  F  F  F </v>
   <v type="logical" >  F  F  F </v>
   <v type="logical" >  F  F  F </v>
   <v type="logical" >  F  F  F </v>
   <v type="logical" >  F  F  F </v>
   <v type="logical" >  F  F  F </v>
   <v type="logical" >  F  F  F </v>
   <v type="logical" >  F  F  F </v>
   <v type="logical" >  F  F  F </v>
   <v type="logical" >  F  F  F </v>
   <v type="logical" >  F  F  F </v>
   <v type="logical" >  F  F  F </v>
   <v type="logical" >  F  F  F </v>
   <v type="logical" >  F  F  F </v>
   <v type="logical" >  F  F  F </v>
   <v type="logical" >  F  F  F </v>
   <v type="logical" >  F  F  F </v>
   <v type="logical" >  F  F  F </v>
   <v type="logical" >  F  F  F </v>
   <v type="logical" >  F  F  F </v>
   <v type="logical" >  F  F  F </v>
   <v type="logical" >  F  F  F </v>
   <v type="logical" >  F  F  F </v>
   <v type="logical" >  F  F  F </v>
   <v type="logical" >  F  F  F </v>
   <v type="logical" >  F  F  F </v>
   <v type="logical" >  F  F  F </v>
   <v type="logical" >  F  F  F </v>
   <v type="logical" >  F  F  F </v>
   <v type="logical" >  F  F  F </v>
   <v type="logical" >  F  F  F </v>
   <v type="logical" >  F  F  F </v>
   <v type="logical" >  F  F  F </v>
   <v type="logical" >  F  F  F </v>
   <v type="logical" >  F  F  F </v>
   <v type="logical" >  F  F  F </v>
   <v type="logical" >  F  F  F </v>
   <v type="logical" >  F  F  F </v>
   <v type="logical" >  F  F  F </v>
   <v type="logical" >  F  F  F </v>
   <v type="logical" >  F  F  F </v>
   <v type="logical" >  F  F  F </v>
  </varray>
  <nose>
   <v>      -3.00000000       0.00000000       0.00010000       0.00010000 </v>
  </nose>
 </structure>
 <calculation>
  <scstep>
   <time name="dav">  368.50  368.58</time>
   <time name="total">  383.17  383.26</time>
   <energy>
    <i name="alphaZ">     75.25431677 </i>
    <i name="ewald"> 139108.35213752 </i>
    <i name="hartreedc">-182456.86616419 </i>
    <i name="XCdc">  -1701.50692336 </i>
    <i name="pawpsdc">  44873.02882129 </i>
    <i name="pawaedc"> -41398.84523641 </i>
    <i name="eentropy">     -0.01349382 </i>
    <i name="bandstr">    813.48697183 </i>
    <i name="atom">  45086.50549395 </i>
    <i name="e_fr_energy">   4399.39592358 </i>
    <i name="e_wo_entrp">   4399.40941740 </i>
    <i name="e_0_energy">   4399.39929703 </i>
   </energy>
  </scstep>
  <scstep>
   <time name="dav">  591.30  591.31</time>
   <time name="total">  591.30  591.31</time>
   <energy>
    <i name="e_fr_energy">   2012.22155855 </i>
    <i name="e_wo_entrp">   2012.20945089 </i>
    <i name="e_0_energy">   2012.21853163 </i>
   </energy>
  </scstep>
  <scstep>
   <time name="dav">  500.14  500.14</time>
   <time name="total">  500.14  500.15</time>
   <energy>
    <i name="e_fr_energy">    229.41369078 </i>
    <i name="e_wo_entrp">    229.41443145 </i>
    <i name="e_0_energy">    229.41387595 </i>
   </energy>
  </scstep>
  <scstep>
   <time name="dav">  424.31  424.32</time>
   <time name="total">  424.31  424.32</time>
   <energy>
    <i name="e_fr_energy">   -135.53322618 </i>
    <i name="e_wo_entrp">   -135.54570552 </i>
    <i name="e_0_energy">   -135.53634602 </i>
   </energy>
  </scstep>
  <scstep>
   <time name="dav">  514.28  514.29</time>
   <time name="total">  540.21  540.22</time>
   <energy>
    <i name="e_fr_energy">   -181.07450663 </i>
    <i name="e_wo_entrp">   -181.60318917 </i>
    <i name="e_0_energy">   -181.20667727 </i>
   </energy>
  </scstep>
  <scstep>
   <time name="diag">   68.73   68.73</time>
   <time name="diis">  189.72  189.73</time>
   <time name="orth">   13.49   13.49</time>
   <time name="total">  311.23  311.24</time>
   <energy>
    <i name="e_fr_energy">   -180.28364480 </i>
    <i name="e_wo_entrp">   -179.99484731 </i>
    <i name="e_0_energy">   -180.21144542 </i>
   </energy>
  </scstep>
  <scstep>
   <time name="diag">   68.93   68.94</time>
   <time name="diis">  218.20  218.21</time>
   <time name="orth">   13.87   13.87</time>
   <time name="total">  341.01  341.02</time>
   <energy>
    <i name="e_fr_energy">   -184.04773248 </i>
    <i name="e_wo_entrp">   -183.91799026 </i>
    <i name="e_0_energy">   -184.01529692 </i>
   </energy>
  </scstep>
  <scstep>
   <time name="diag">   68.02   68.02</time>
   <time name="diis">  201.23  201.23</time>
   <time name="orth">   13.46   13.46</time>
   <time name="total">  322.91  322.92</time>
   <energy>
    <i name="e_fr_energy">   -185.39842983 </i>
    <i name="e_wo_entrp">   -185.32050498 </i>
    <i name="e_0_energy">   -185.37894862 </i>
   </energy>
  </scstep>
  <scstep>
   <time name="diag">   67.38   67.38</time>
   <time name="diis">  191.16  191.16</time>
   <time name="orth">   13.61   13.61</time>
   <time name="total">  311.26  311.26</time>
   <energy>
    <i name="e_fr_energy">   -182.66081642 </i>
    <i name="e_wo_entrp">   -182.65050815 </i>
    <i name="e_0_energy">   -182.65823936 </i>
   </energy>
  </scstep>
  <scstep>
   <time name="diag">   67.32   67.32</time>
   <time name="diis">  194.77  194.77</time>
   <time name="orth">   13.57   13.57</time>
   <time name="total">  315.31  315.31</time>
   <energy>
    <i name="e_fr_energy">   -180.55807204 </i>
    <i name="e_wo_entrp">   -180.42552434 </i>
    <i name="e_0_energy">   -180.52493512 </i>
   </energy>
  </scstep>
  <scstep>
   <time name="diag">   68.40   68.40</time>
   <time name="diis">  189.14  189.14</time>
   <time name="orth">   13.59   13.59</time>
   <time name="total">  311.27  311.28</time>
   <energy>
    <i name="e_fr_energy">   -178.56219044 </i>
    <i name="e_wo_entrp">   -178.50614196 </i>
    <i name="e_0_energy">   -178.54817832 </i>
   </energy>
  </scstep>
  <scstep>
   <time name="diag">   69.22   69.22</time>
   <time name="diis">  189.52  189.52</time>
   <time name="orth">   14.00   14.00</time>
   <time name="total">  312.72  312.72</time>
   <energy>
    <i name="e_fr_energy">   -178.43557733 </i>
    <i name="e_wo_entrp">   -178.32998318 </i>
    <i name="e_0_energy">   -178.40917879 </i>
   </energy>
  </scstep>
  <scstep>
   <time name="diag">   68.98   68.98</time>
   <time name="diis">  190.32  190.33</time>
   <time name="orth">   13.66   13.66</time>
   <time name="total">  312.54  312.55</time>
   <energy>
    <i name="e_fr_energy">   -177.36285838 </i>
    <i name="e_wo_entrp">   -177.32746847 </i>
    <i name="e_0_energy">   -177.35401091 </i>
   </energy>
  </scstep>
  <scstep>
   <time name="diag">   68.50   68.50</time>
   <time name="diis">  185.00  185.01</time>
   <time name="orth">   13.74   13.74</time>
   <time name="total">  306.96  306.97</time>
   <energy>
    <i name="e_fr_energy">   -177.26365683 </i>
    <i name="e_wo_entrp">   -177.18115945 </i>
    <i name="e_0_energy">   -177.24303248 </i>
   </energy>
  </scstep>
  <scstep>
   <time name="diag">   68.81   68.81</time>
   <time name="diis">  184.21  184.21</time>
   <time name="orth">   13.41   13.41</time>
   <time name="total">  306.66  306.67</time>
   <energy>
    <i name="e_fr_energy">   -177.20143736 </i>
    <i name="e_wo_entrp">   -177.26790836 </i>
    <i name="e_0_energy">   -177.21805511 </i>
   </energy>
  </scstep>
  <scstep>
   <time name="diag">   68.81   68.81</time>
   <time name="diis">  186.21  186.22</time>
   <time name="orth">   13.24   13.24</time>
   <time name="total">  307.85  307.86</time>
   <energy>
    <i name="e_fr_energy">   -176.70027111 </i>
    <i name="e_wo_entrp">   -176.74613404 </i>
    <i name="e_0_energy">   -176.71173684 </i>
   </energy>
  </scstep>
  <scstep>
   <time name="diag">   67.77   67.77</time>
   <time name="diis">  185.11  185.11</time>
   <time name="orth">   13.23   13.23</time>
   <time name="total">  305.53  305.54</time>
   <energy>
    <i name="e_fr_energy">   -176.23758141 </i>
    <i name="e_wo_entrp">   -176.28447762 </i>
    <i name="e_0_energy">   -176.24930546 </i>
   </energy>
  </scstep>
  <scstep>
   <time name="diag">   68.27   68.27</time>
   <time name="diis">  180.58  180.58</time>
   <time name="orth">   13.46   13.46</time>
   <time name="total">  301.96  301.97</time>
   <energy>
    <i name="e_fr_energy">   -176.15744283 </i>
    <i name="e_wo_entrp">   -176.19323237 </i>
    <i name="e_0_energy">   -176.16639022 </i>
   </energy>
  </scstep>
  <scstep>
   <time name="diag">   67.97   67.98</time>
   <time name="diis">  179.03  179.03</time>
   <time name="orth">   13.45   13.45</time>
   <time name="total">  300.10  300.11</time>
   <energy>
    <i name="e_fr_energy">   -176.03737633 </i>
    <i name="e_wo_entrp">   -176.03046011 </i>
    <i name="e_0_energy">   -176.03564728 </i>
   </energy>
  </scstep>
  <scstep>
   <time name="diag">   68.14   68.14</time>
   <time name="diis">  177.99  177.99</time>
   <time name="orth">   13.29   13.29</time>
   <time name="total">  299.25  299.25</time>
   <energy>
    <i name="e_fr_energy">   -176.05128653 </i>
    <i name="e_wo_entrp">   -176.05554920 </i>
    <i name="e_0_energy">   -176.05235220 </i>
   </energy>
  </scstep>
  <scstep>
   <time name="diag">   67.35   67.35</time>
   <time name="diis">  180.67  180.67</time>
   <time name="orth">   13.43   13.43</time>
   <time name="total">  300.69  300.69</time>
   <energy>
    <i name="e_fr_energy">   -175.73795430 </i>
    <i name="e_wo_entrp">   -175.68117803 </i>
    <i name="e_0_energy">   -175.72376023 </i>
   </energy>
  </scstep>
  <scstep>
   <time name="diag">   67.91   67.91</time>
   <time name="diis">  178.37  178.38</time>
   <time name="orth">   13.53   13.54</time>
   <time name="total">  299.94  299.96</time>
   <energy>
    <i name="e_fr_energy">   -175.64100771 </i>
    <i name="e_wo_entrp">   -175.62179434 </i>
    <i name="e_0_energy">   -175.63620436 </i>
   </energy>
  </scstep>
  <scstep>
   <time name="diag">   67.92   67.93</time>
   <time name="diis">  180.23  180.24</time>
   <time name="orth">   13.43   13.43</time>
   <time name="total">  301.30  301.33</time>
   <energy>
    <i name="e_fr_energy">   -175.61700132 </i>
    <i name="e_wo_entrp">   -175.59824571 </i>
    <i name="e_0_energy">   -175.61231242 </i>
   </energy>
  </scstep>
  <scstep>
   <time name="diag">   67.65   67.66</time>
   <time name="diis">  178.73  178.74</time>
   <time name="orth">   13.49   13.49</time>
   <time name="total">  299.98  300.00</time>
   <energy>
    <i name="e_fr_energy">   -175.52777874 </i>
    <i name="e_wo_entrp">   -175.49280708 </i>
    <i name="e_0_energy">   -175.51903582 </i>
   </energy>
  </scstep>
  <scstep>
   <time name="diag">   67.65   67.66</time>
   <time name="diis">  179.14  179.16</time>
   <time name="orth">   13.63   13.63</time>
   <time name="total">  300.88  300.91</time>
   <energy>
    <i name="e_fr_energy">   -175.47292551 </i>
    <i name="e_wo_entrp">   -175.43026188 </i>
    <i name="e_0_energy">   -175.46225960 </i>
   </energy>
  </scstep>
  <scstep>
   <time name="diag">   67.59   67.60</time>
   <time name="diis">  180.02  180.04</time>
   <time name="orth">   13.65   13.66</time>
   <time name="total">  302.02  302.05</time>
   <energy>
    <i name="e_fr_energy">   -175.42366913 </i>
    <i name="e_wo_entrp">   -175.37753307 </i>
    <i name="e_0_energy">   -175.41213512 </i>
   </energy>
  </scstep>
  <scstep>
   <time name="diag">   68.59   68.59</time>
   <time name="diis">  178.59  178.61</time>
   <time name="orth">   13.50   13.50</time>
   <time name="total">  301.72  301.75</time>
   <energy>
    <i name="e_fr_energy">   -175.38658064 </i>
    <i name="e_wo_entrp">   -175.33437865 </i>
    <i name="e_0_energy">   -175.37353014 </i>
   </energy>
  </scstep>
  <scstep>
   <time name="diag">   69.26   69.27</time>
   <time name="diis">  179.98  180.00</time>
   <time name="orth">   13.56   13.56</time>
   <time name="total">  304.04  304.08</time>
   <energy>
    <i name="e_fr_energy">   -175.37052243 </i>
    <i name="e_wo_entrp">   -175.32640879 </i>
    <i name="e_0_energy">   -175.35949402 </i>
   </energy>
  </scstep>
  <scstep>
   <time name="diag">   69.52   69.53</time>
   <time name="diis">  183.41  183.42</time>
   <time name="orth">   13.72   13.72</time>
   <time name="total">  307.73  307.75</time>
   <energy>
    <i name="e_fr_energy">   -175.36091447 </i>
    <i name="e_wo_entrp">   -175.30961096 </i>
    <i name="e_0_energy">   -175.34808860 </i>
   </energy>
  </scstep>
  <scstep>
   <time name="diag">   69.35   69.35</time>
   <time name="diis">  183.38  183.38</time>
   <time name="orth">   13.80   13.80</time>
   <time name="total">  307.81  307.82</time>
   <energy>
    <i name="e_fr_energy">   -175.34838978 </i>
    <i name="e_wo_entrp">   -175.30379853 </i>
    <i name="e_0_energy">   -175.33724197 </i>
   </energy>
  </scstep>
  <scstep>
   <time name="diag">   69.26   69.26</time>
   <time name="diis">  182.43  182.43</time>
   <time name="orth">   13.81   13.81</time>
   <time name="total">  307.60  307.61</time>
   <energy>
    <i name="e_fr_energy">   -175.33911997 </i>
    <i name="e_wo_entrp">   -175.28492952 </i>
    <i name="e_0_energy">   -175.32557236 </i>
   </energy>
  </scstep>
  <scstep>
   <time name="diag">   69.23   69.23</time>
   <time name="diis">  182.29  182.29</time>
   <time name="orth">   13.82   13.82</time>
   <time name="total">  306.81  306.81</time>
   <energy>
    <i name="e_fr_energy">   -175.33874344 </i>
    <i name="e_wo_entrp">   -175.29258003 </i>
    <i name="e_0_energy">   -175.32720259 </i>
   </energy>
  </scstep>
  <scstep>
   <time name="diag">   69.41   69.42</time>
   <time name="diis">  182.17  182.17</time>
   <time name="orth">   13.87   13.87</time>
   <time name="total">  307.23  307.24</time>
   <energy>
    <i name="e_fr_energy">   -175.33525322 </i>
    <i name="e_wo_entrp">   -175.28533884 </i>
    <i name="e_0_energy">   -175.32277463 </i>
   </energy>
  </scstep>
  <scstep>
   <time name="diag">   69.29   69.29</time>
   <time name="diis">  181.81  181.82</time>
   <time name="orth">   13.93   13.93</time>
   <time name="total">  307.23  307.25</time>
   <energy>
    <i name="e_fr_energy">   -175.33414530 </i>
    <i name="e_wo_entrp">   -175.28162010 </i>
    <i name="e_0_energy">   -175.32101400 </i>
   </energy>
  </scstep>
  <scstep>
   <time name="diag">   70.26   70.26</time>
   <time name="diis">  182.74  182.75</time>
   <time name="orth">   13.98   13.98</time>
   <time name="total">  309.59  309.60</time>
   <energy>
    <i name="e_fr_energy">   -175.33494187 </i>
    <i name="e_wo_entrp">   -175.27998803 </i>
    <i name="e_0_energy">   -175.32120341 </i>
   </energy>
  </scstep>
  <scstep>
   <time name="diag">   70.30   70.30</time>
   <time name="diis">  182.55  182.55</time>
   <time name="orth">   13.56   13.56</time>
   <time name="total">  308.78  308.78</time>
   <energy>
    <i name="e_fr_energy">   -175.33666938 </i>
    <i name="e_wo_entrp">   -175.28646639 </i>
    <i name="e_0_energy">   -175.32411863 </i>
   </energy>
  </scstep>
  <scstep>
   <time name="diag">   70.50   70.50</time>
   <time name="diis">  183.42  183.42</time>
   <time name="orth">   13.57   13.57</time>
   <time name="total">  309.78  309.78</time>
   <energy>
    <i name="e_fr_energy">   -175.33839929 </i>
    <i name="e_wo_entrp">   -175.28781589 </i>
    <i name="e_0_energy">   -175.32575344 </i>
   </energy>
  </scstep>
  <scstep>
   <time name="diag">   69.76   69.76</time>
   <time name="diis">  179.72  179.72</time>
   <time name="orth">   13.82   13.82</time>
   <time name="total">  305.54  305.54</time>
   <energy>
    <i name="e_fr_energy">   -175.34033786 </i>
    <i name="e_wo_entrp">   -175.29029939 </i>
    <i name="e_0_energy">   -175.32782825 </i>
   </energy>
  </scstep>
  <scstep>
   <time name="diag">   69.32   69.32</time>
   <time name="diis">  165.12  165.12</time>
   <time name="orth">   13.51   13.51</time>
   <time name="total">  290.15  290.17</time>
   <energy>
    <i name="e_fr_energy">   -175.34309516 </i>
    <i name="e_wo_entrp">   -175.29127057 </i>
    <i name="e_0_energy">   -175.33013901 </i>
   </energy>
  </scstep>
  <scstep>
   <time name="diag">   68.88   68.88</time>
   <time name="diis">  159.14  159.14</time>
   <time name="orth">   13.50   13.50</time>
   <time name="total">  283.62  283.62</time>
   <energy>
    <i name="e_fr_energy">   -175.34581850 </i>
    <i name="e_wo_entrp">   -175.29265640 </i>
    <i name="e_0_energy">   -175.33252797 </i>
   </energy>
  </scstep>
  <scstep>
   <time name="diag">   68.76   68.76</time>
   <time name="diis">  141.32  141.32</time>
   <time name="orth">   13.75   13.75</time>
   <time name="total">  266.20  266.21</time>
   <energy>
    <i name="e_fr_energy">   -175.34825474 </i>
    <i name="e_wo_entrp">   -175.29582748 </i>
    <i name="e_0_energy">   -175.33514793 </i>
   </energy>
  </scstep>
  <scstep>
   <time name="diag">   69.06   69.07</time>
   <time name="diis">  151.68  151.68</time>
   <time name="orth">   13.92   13.92</time>
   <time name="total">  276.98  276.99</time>
   <energy>
    <i name="e_fr_energy">   -175.35107978 </i>
    <i name="e_wo_entrp">   -175.29786349 </i>
    <i name="e_0_energy">   -175.33777571 </i>
   </energy>
  </scstep>
  <scstep>
   <time name="diag">   68.26   68.27</time>
   <time name="diis">  123.16  123.16</time>
   <time name="orth">   13.93   13.93</time>
   <time name="total">  249.28  249.28</time>
   <energy>
    <i name="e_fr_energy">   -175.35253820 </i>
    <i name="e_wo_entrp">   -175.30115813 </i>
    <i name="e_0_energy">   -175.33969318 </i>
   </energy>
  </scstep>
  <scstep>
   <time name="diag">   68.84   68.84</time>
   <time name="diis">  134.10  134.10</time>
   <time name="orth">   13.62   13.62</time>
   <time name="total">  259.71  259.72</time>
   <energy>
    <i name="e_fr_energy">   -175.35489852 </i>
    <i name="e_wo_entrp">   -175.30447702 </i>
    <i name="e_0_energy">   -175.34229314 </i>
   </energy>
  </scstep>
  <scstep>
   <time name="diag">   70.24   70.24</time>
   <time name="diis">  118.08  118.08</time>
   <time name="orth">   13.79   13.79</time>
   <time name="total">  245.68  245.68</time>
   <energy>
    <i name="e_fr_energy">   -175.35618457 </i>
    <i name="e_wo_entrp">   -175.30508257 </i>
    <i name="e_0_energy">   -175.34340907 </i>
   </energy>
  </scstep>
  <scstep>
   <time name="diag">   69.29   69.29</time>
   <time name="diis">  118.87  118.87</time>
   <time name="orth">   13.47   13.46</time>
   <time name="total">  245.10  245.10</time>
   <energy>
    <i name="e_fr_energy">   -175.35732270 </i>
    <i name="e_wo_entrp">   -175.30644107 </i>
    <i name="e_0_energy">   -175.34460229 </i>
   </energy>
  </scstep>
  <scstep>
   <time name="diag">   68.67   68.67</time>
   <time name="diis">  120.82  120.82</time>
   <time name="orth">   13.70   13.70</time>
   <time name="total">  246.47  246.48</time>
   <energy>
    <i name="e_fr_energy">   -175.35837157 </i>
    <i name="e_wo_entrp">   -175.30663486 </i>
    <i name="e_0_energy">   -175.34543739 </i>
   </energy>
  </scstep>
  <scstep>
   <time name="diag">   68.54   68.55</time>
   <time name="diis">  116.22  116.22</time>
   <time name="orth">   14.21   14.21</time>
   <time name="total">  243.39  243.41</time>
   <energy>
    <i name="e_fr_energy">   -175.35903371 </i>
    <i name="e_wo_entrp">   -175.30714167 </i>
    <i name="e_0_energy">   -175.34606070 </i>
   </energy>
  </scstep>
  <scstep>
   <time name="diag">   68.67   68.68</time>
   <time name="diis">  115.50  115.50</time>
   <time name="orth">   13.57   13.57</time>
   <time name="total">  241.64  241.64</time>
   <energy>
    <i name="e_fr_energy">   -175.36014281 </i>
    <i name="e_wo_entrp">   -175.30857950 </i>
    <i name="e_0_energy">   -175.34725198 </i>
   </energy>
  </scstep>
  <scstep>
   <time name="diag">   70.08   70.08</time>
   <time name="diis">  112.76  112.76</time>
   <time name="orth">   13.54   13.54</time>
   <time name="total">  239.93  239.94</time>
   <energy>
    <i name="e_fr_energy">   -175.36063062 </i>
    <i name="e_wo_entrp">   -175.30912586 </i>
    <i name="e_0_energy">   -175.34775443 </i>
   </energy>
  </scstep>
  <scstep>
   <time name="diag">   67.80   67.81</time>
   <time name="diis">  115.96  115.96</time>
   <time name="orth">   13.87   13.87</time>
   <time name="total">  240.90  240.90</time>
   <energy>
    <i name="e_fr_energy">   -175.36143810 </i>
    <i name="e_wo_entrp">   -175.31002215 </i>
    <i name="e_0_energy">   -175.34858411 </i>
   </energy>
  </scstep>
  <scstep>
   <time name="diag">   67.99   67.99</time>
   <time name="diis">   96.89   96.90</time>
   <time name="orth">   14.12   14.12</time>
   <time name="total">  223.88  223.89</time>
   <energy>
    <i name="e_fr_energy">   -175.36175272 </i>
    <i name="e_wo_entrp">   -175.31008130 </i>
    <i name="e_0_energy">   -175.34883487 </i>
   </energy>
  </scstep>
  <scstep>
   <time name="diag">   68.65   68.66</time>
   <time name="diis">   97.54   97.54</time>
   <time name="orth">   13.65   13.65</time>
   <time name="total">  223.90  223.91</time>
   <energy>
    <i name="e_fr_energy">   -175.36220796 </i>
    <i name="e_wo_entrp">   -175.31066383 </i>
    <i name="e_0_energy">   -175.34932193 </i>
   </energy>
  </scstep>
  <scstep>
   <time name="diag">   70.50   70.50</time>
   <time name="diis">   92.19   92.19</time>
   <time name="orth">   13.66   13.66</time>
   <time name="total">  220.01  220.02</time>
   <energy>
    <i name="e_fr_energy">   -175.36250551 </i>
    <i name="e_wo_entrp">   -175.31099524 </i>
    <i name="e_0_energy">   -175.34962794 </i>
   </energy>
  </scstep>
  <scstep>
   <time name="diag">   68.50   68.50</time>
   <time name="diis">   91.52   91.52</time>
   <time name="orth">   13.66   13.66</time>
   <time name="total">  217.83  217.84</time>
   <energy>
    <i name="e_fr_energy">   -175.36276493 </i>
    <i name="e_wo_entrp">   -175.31130892 </i>
    <i name="e_0_energy">   -175.34990092 </i>
   </energy>
  </scstep>
  <scstep>
   <time name="diag">   68.43   68.43</time>
   <time name="diis">   76.38   76.38</time>
   <time name="orth">   13.45   13.45</time>
   <time name="total">  202.20  202.21</time>
   <energy>
    <i name="e_fr_energy">   -175.36286728 </i>
    <i name="e_wo_entrp">   -175.31133573 </i>
    <i name="e_0_energy">   -175.34998439 </i>
   </energy>
  </scstep>
  <scstep>
   <time name="diag">   70.36   70.36</time>
   <time name="diis">   93.57   93.57</time>
   <time name="orth">   13.42   13.42</time>
   <time name="total">  221.26  221.27</time>
   <energy>
    <i name="e_fr_energy">   -175.36312726 </i>
    <i name="e_wo_entrp">   -175.31169522 </i>
    <i name="e_0_energy">   -175.35026925 </i>
   </energy>
  </scstep>
  <scstep>
   <time name="diag">   68.37   68.37</time>
   <time name="diis">   89.18   89.18</time>
   <time name="orth">   13.88   13.88</time>
   <time name="total">  215.11  215.11</time>
   <energy>
    <i name="e_fr_energy">   -175.36329479 </i>
    <i name="e_wo_entrp">   -175.31181317 </i>
    <i name="e_0_energy">   -175.35042439 </i>
   </energy>
  </scstep>
  <scstep>
   <time name="diag">   67.66   67.66</time>
   <time name="diis">   88.16   88.16</time>
   <time name="orth">   13.76   13.76</time>
   <time name="total">  214.37  214.38</time>
   <energy>
    <i name="e_fr_energy">   -175.36343736 </i>
    <i name="e_wo_entrp">   -175.31192106 </i>
    <i name="e_0_energy">   -175.35055829 </i>
   </energy>
  </scstep>
  <scstep>
   <time name="diag">   68.91   68.91</time>
   <time name="diis">   79.17   79.18</time>
   <time name="orth">   13.89   13.89</time>
   <time name="total">  176.41  176.42</time>
   <energy>
    <i name="alphaZ">     75.25431677 </i>
    <i name="ewald"> 139108.35213752 </i>
    <i name="hartreedc">-183458.92666655 </i>
    <i name="XCdc">  -1690.77270184 </i>
    <i name="pawpsdc">  46322.40904725 </i>
    <i name="pawaedc"> -42793.78360770 </i>
    <i name="eentropy">     -0.05149765 </i>
    <i name="bandstr">  -2824.35002959 </i>
    <i name="atom">  45086.50549395 </i>
    <i name="e_fr_energy">   -175.36350784 </i>
    <i name="e_wo_entrp">   -175.31201019 </i>
    <i name="e_0_energy">   -175.35063343 </i>
   </energy>
  </scstep>
  <structure>
   <crystal>
    <varray name="basis" >
     <v>      30.00000000       0.00000000       0.00000000 </v>
     <v>       0.00000000      30.00000000       0.00000000 </v>
     <v>       0.00000000       0.00000000      30.00000000 </v>
    </varray>
    <i name="volume">  27000.00000000 </i>
    <varray name="rec_basis" >
     <v>       0.03333333       0.00000000       0.00000000 </v>
     <v>       0.00000000       0.03333333       0.00000000 </v>
     <v>       0.00000000       0.00000000       0.03333333 </v>
    </varray>
   </crystal>
   <varray name="positions" >
    <v>       0.44576020       0.32826710       0.41691983 </v>
    <v>       0.67173288       0.55423978       0.41691983 </v>
    <v>       0.55423980       0.32826710       0.41691983 </v>
    <v>       0.32826712       0.55423978       0.41691983 </v>
    <v>       0.50000000       0.38250690       0.34021317 </v>
    <v>       0.50000000       0.38250690       0.65978680 </v>
    <v>       0.50000000       0.27609440       0.50000000 </v>
    <v>       0.27609443       0.49999998       0.50000000 </v>
    <v>       0.72390557       0.49999998       0.50000000 </v>
    <v>       0.50000000       0.72390555       0.50000000 </v>
    <v>       0.61195280       0.38804720       0.34167483 </v>
    <v>       0.61195280       0.38804720       0.65832513 </v>
    <v>       0.38804722       0.61195278       0.34167483 </v>
    <v>       0.38804722       0.61195278       0.65832513 </v>
    <v>       0.38804720       0.38804720       0.34167483 </v>
    <v>       0.38804720       0.38804720       0.65832513 </v>
    <v>       0.61195278       0.61195278       0.34167483 </v>
    <v>       0.61195278       0.61195278       0.65832513 </v>
    <v>       0.44576020       0.32826710       0.58308023 </v>
    <v>       0.67173288       0.55423978       0.58308023 </v>
    <v>       0.55791699       0.44208301       0.41809300 </v>
    <v>       0.32826705       0.44576024       0.41691983 </v>
    <v>       0.55423973       0.67173293       0.41691983 </v>
    <v>       0.55423980       0.32826710       0.58308023 </v>
    <v>       0.32826712       0.55423978       0.58308023 </v>
    <v>       0.67173295       0.44576024       0.41691983 </v>
    <v>       0.44576027       0.67173293       0.41691983 </v>
    <v>       0.44208301       0.44208301       0.41809300 </v>
    <v>       0.50000000       0.38416601       0.50000000 </v>
    <v>       0.61749315       0.50000005       0.34021317 </v>
    <v>       0.61749315       0.50000005       0.65978680 </v>
    <v>       0.38250685       0.50000005       0.34021317 </v>
    <v>       0.38250685       0.50000005       0.65978680 </v>
    <v>       0.38317830       0.38317830       0.50000000 </v>
    <v>       0.61682172       0.61682172       0.50000000 </v>
    <v>       0.61682170       0.38317830       0.50000000 </v>
    <v>       0.38317828       0.61682172       0.50000000 </v>
    <v>       0.50000000       0.50000000       0.33478917 </v>
    <v>       0.50000000       0.50000000       0.66521087 </v>
    <v>       0.32826705       0.44576024       0.58308023 </v>
    <v>       0.55423973       0.67173293       0.58308023 </v>
    <v>       0.55791699       0.44208301       0.58190703 </v>
    <v>       0.44208298       0.55791702       0.41809300 </v>
    <v>       0.44208301       0.44208301       0.58190703 </v>
    <v>       0.67173295       0.44576024       0.58308023 </v>
    <v>       0.44576027       0.67173293       0.58308023 </v>
    <v>       0.55791702       0.55791702       0.41809300 </v>
    <v>       0.38416599       0.50000002       0.50000000 </v>
    <v>       0.61583401       0.50000002       0.50000000 </v>
    <v>       0.50000000       0.61749319       0.34021317 </v>
    <v>       0.50000000       0.61749319       0.65978680 </v>
    <v>       0.50000000       0.50000000       0.50000000 </v>
    <v>       0.44208298       0.55791702       0.58190703 </v>
    <v>       0.55791702       0.55791702       0.58190703 </v>
    <v>       0.50000000       0.61583404       0.50000000 </v>
    <v>       0.43038183       0.65619590       0.35156547 </v>
    <v>       0.41882203       0.68213157       0.32691853 </v>
   </varray>
  </structure>
  <varray name="forces" >
   <v>       0.71169430       1.09983913       0.29368845 </v>
   <v>      -1.11047035      -0.69342199       0.28790485 </v>
   <v>      -0.70254267       1.10899435       0.28809040 </v>
   <v>       1.05594145      -0.80289818       0.34330163 </v>
   <v>       0.00479975       0.40688742       1.28609850 </v>
   <v>      -0.01014246       0.41434053      -1.27978786 </v>
   <v>      -0.00025852       1.51503023      -0.00140637 </v>
   <v>       1.50895377      -0.00774021       0.00615144 </v>
   <v>      -1.51815283      -0.00143717       0.00154578 </v>
   <v>       0.00688729      -1.51314863       0.02311791 </v>
   <v>      -0.76054694       0.75178115       1.07671678 </v>
   <v>      -0.74910352       0.76201434      -1.07044385 </v>
   <v>      -0.83901208      -2.86116251       0.90614899 </v>
   <v>       0.75507923      -0.76378215      -1.07195607 </v>
   <v>       0.75347083       0.74180953       1.07090617 </v>
   <v>       0.75406403       0.75561046      -1.07026474 </v>
   <v>      -0.75436830      -0.76442720       1.07703690 </v>
   <v>      -0.75739853      -0.75854960      -1.07213052 </v>
   <v>       0.70145308       1.10525139      -0.29084371 </v>
   <v>      -1.10687028      -0.71338769      -0.28366271 </v>
   <v>       0.11277150      -0.11133643      -0.16111483 </v>
   <v>       1.10470787       0.73717774       0.26989162 </v>
   <v>      -0.60855179      -1.11131506       0.34711333 </v>
   <v>      -0.70839770       1.10198370      -0.29873921 </v>
   <v>       1.10859359      -0.70976409      -0.28062816 </v>
   <v>      -1.11006257       0.70048852       0.29072931 </v>
   <v>       0.70209478      -1.23574330      -0.23635653 </v>
   <v>      -0.11477493      -0.10606522      -0.15252322 </v>
   <v>       0.00277652      -0.22184206      -0.00295099 </v>
   <v>      -0.41301720       0.00239829       1.28300373 </v>
   <v>      -0.41593406       0.01326742      -1.28092738 </v>
   <v>       0.38046542      -0.11124716       1.31341308 </v>
   <v>       0.41308901       0.00357158      -1.28019314 </v>
   <v>       0.83623273       0.83045046       0.00485997 </v>
   <v>      -0.83215702      -0.82543411      -0.00853193 </v>
   <v>      -0.82838551       0.82718208      -0.00106535 </v>
   <v>       0.80543491      -0.85081724       0.06039444 </v>
   <v>       0.01658283      -0.04907066       1.17833035 </v>
   <v>      -0.00124987      -0.00039522      -1.17660978 </v>
   <v>       1.10901504       0.70259929      -0.28180923 </v>
   <v>      -0.70227308      -1.10211588      -0.30234060 </v>
   <v>       0.11273454      -0.11394716       0.15998422 </v>
   <v>      -0.08797660      -0.05034701      -0.03776971 </v>
   <v>      -0.10741510      -0.10344640       0.15332647 </v>
   <v>      -1.10247083       0.70937021      -0.30255056 </v>
   <v>       0.70667918      -1.10794044      -0.29395097 </v>
   <v>       0.13920426       0.09452806      -0.12965773 </v>
   <v>      -0.22702390      -0.00292716      -0.00814288 </v>
   <v>       0.23107779      -0.01124113       0.01033267 </v>
   <v>      -0.53814095       0.01483391       1.35994731 </v>
   <v>      -0.00459517      -0.41457044      -1.28078446 </v>
   <v>       0.00109406       0.00632236      -0.00556214 </v>
   <v>      -0.11450566       0.11765525       0.15779967 </v>
   <v>       0.11918753       0.09796495       0.17093197 </v>
   <v>       0.02714138       0.20593727       0.04460155 </v>
   <v>       4.20082382      -4.94929235       6.47514808 </v>
   <v>      -2.15625209       7.24152421      -6.27781093 </v>
  </varray>
  <varray name="stress" >
   <v>      -6.61000525       0.06761920       0.14760484 </v>
   <v>       0.06761920      -6.19448907      -0.34254067 </v>
   <v>       0.14760487      -0.34254065      -6.48252045 </v>
  </varray>
  <energy>
   <i name="e_fr_energy">   -175.36350784 </i>
   <i name="e_wo_entrp">   -175.35063343 </i>
   <i name="e_0_energy">     -0.05149765 </i>
  </energy>
  <time name="totalsc">18192.2718192.92</time>
  <eigenvalues>
   <array>
    <dimension dim="1">band</dimension>
    <dimension dim="2">kpoint</dimension>
    <dimension dim="3">spin</dimension>
    <field>eigene</field>
    <field>occ</field>
    <set>
     <set comment="spin 1">
      <set comment="kpoint 1">
       <r>  -28.2439    1.0000 </r>
       <r>  -13.4662    1.0000 </r>
       <r>  -11.5825    1.0000 </r>
       <r>  -11.1097    1.0000 </r>
       <r>  -10.4429    1.0000 </r>
       <r>   -6.6604    1.0000 </r>
       <r>   -6.4628    1.0000 </r>
       <r>   -6.1629    1.0000 </r>
       <r>   -6.1344    1.0000 </r>
       <r>   -6.1253    1.0000 </r>
       <r>   -6.0969    1.0000 </r>
       <r>   -5.9539    1.0000 </r>
       <r>   -5.8291    1.0000 </r>
       <r>   -5.8129    1.0000 </r>
       <r>   -5.8007    1.0000 </r>
       <r>   -5.7813    1.0000 </r>
       <r>   -5.7349    1.0000 </r>
       <r>   -5.6963    1.0000 </r>
       <r>   -5.6875    1.0000 </r>
       <r>   -5.6847    1.0000 </r>
       <r>   -5.6662    1.0000 </r>
       <r>   -5.6301    1.0000 </r>
       <r>   -5.6242    1.0000 </r>
       <r>   -5.6223    1.0000 </r>
       <r>   -5.6079    1.0000 </r>
       <r>   -5.5925    1.0000 </r>
       <r>   -5.5792    1.0000 </r>
       <r>   -5.5767    1.0000 </r>
       <r>   -5.5660    1.0000 </r>
       <r>   -5.5601    1.0000 </r>
       <r>   -5.5539    1.0000 </r>
       <r>   -5.5501    1.0000 </r>
       <r>   -5.5283    1.0000 </r>
       <r>   -5.5253    1.0000 </r>
       <r>   -5.5240    1.0000 </r>
       <r>   -5.5173    1.0000 </r>
       <r>   -5.5135    1.0000 </r>
       <r>   -5.5095    1.0000 </r>
       <r>   -5.5061    1.0000 </r>
       <r>   -5.4945    1.0000 </r>
       <r>   -5.4884    1.0000 </r>
       <r>   -5.4794    1.0000 </r>
       <r>   -5.4768    1.0000 </r>
       <r>   -5.4740    1.0000 </r>
       <r>   -5.4693    1.0000 </r>
       <r>   -5.4616    1.0000 </r>
       <r>   -5.4519    1.0000 </r>
       <r>   -5.4456    1.0000 </r>
       <r>   -5.4439    1.0000 </r>
       <r>   -5.4361    1.0000 </r>
       <r>   -5.4317    1.0000 </r>
       <r>   -5.4308    1.0000 </r>
       <r>   -5.4141    1.0000 </r>
       <r>   -5.4089    1.0000 </r>
       <r>   -5.4080    1.0000 </r>
       <r>   -5.4064    1.0000 </r>
       <r>   -5.4011    1.0000 </r>
       <r>   -5.3666    1.0000 </r>
       <r>   -5.3562    1.0000 </r>
       <r>   -5.3438    1.0000 </r>
       <r>   -5.3371    1.0000 </r>
       <r>   -5.3333    1.0000 </r>
       <r>   -5.3307    1.0000 </r>
       <r>   -5.3228    1.0000 </r>
       <r>   -5.3138    1.0000 </r>
       <r>   -5.3065    1.0000 </r>
       <r>   -5.3040    1.0000 </r>
       <r>   -5.2972    1.0000 </r>
       <r>   -5.2865    1.0000 </r>
       <r>   -5.2748    1.0000 </r>
       <r>   -5.2705    1.0000 </r>
       <r>   -5.2523    1.0000 </r>
       <r>   -5.2334    1.0000 </r>
       <r>   -5.2237    1.0000 </r>
       <r>   -5.2078    1.0000 </r>
       <r>   -5.2007    1.0000 </r>
       <r>   -5.1969    1.0000 </r>
       <r>   -5.1927    1.0000 </r>
       <r>   -5.1836    1.0000 </r>
       <r>   -5.1766    1.0000 </r>
       <r>   -5.1727    1.0000 </r>
       <r>   -5.1658    1.0000 </r>
       <r>   -5.1658    1.0000 </r>
       <r>   -5.1626    1.0000 </r>
       <r>   -5.1462    1.0000 </r>
       <r>   -5.1334    1.0000 </r>
       <r>   -5.1321    1.0000 </r>
       <r>   -5.1279    1.0000 </r>
       <r>   -5.1197    1.0000 </r>
       <r>   -5.1119    1.0000 </r>
       <r>   -5.1010    1.0000 </r>
       <r>   -5.0737    1.0000 </r>
       <r>   -5.0683    1.0000 </r>
       <r>   -5.0633    1.0000 </r>
       <r>   -5.0555    1.0000 </r>
       <r>   -5.0521    1.0000 </r>
       <r>   -5.0502    1.0000 </r>
       <r>   -5.0441    1.0000 </r>
       <r>   -5.0421    1.0000 </r>
       <r>   -5.0356    1.0000 </r>
       <r>   -5.0340    1.0000 </r>
       <r>   -5.0319    1.0000 </r>
       <r>   -5.0255    1.0000 </r>
       <r>   -5.0193    1.0000 </r>
       <r>   -5.0129    1.0000 </r>
       <r>   -5.0085    1.0000 </r>
       <r>   -5.0053    1.0000 </r>
       <r>   -5.0025    1.0000 </r>
       <r>   -4.9936    1.0000 </r>
       <r>   -4.9893    1.0000 </r>
       <r>   -4.9861    1.0000 </r>
       <r>   -4.9797    1.0000 </r>
       <r>   -4.9769    1.0000 </r>
       <r>   -4.9716    1.0000 </r>
       <r>   -4.9659    1.0000 </r>
       <r>   -4.9612    1.0000 </r>
       <r>   -4.9593    1.0000 </r>
       <r>   -4.9530    1.0000 </r>
       <r>   -4.9472    1.0000 </r>
       <r>   -4.9349    1.0000 </r>
       <r>   -4.9298    1.0000 </r>
       <r>   -4.9262    1.0000 </r>
       <r>   -4.9220    1.0000 </r>
       <r>   -4.9118    1.0000 </r>
       <r>   -4.9074    1.0000 </r>
       <r>   -4.9026    1.0000 </r>
       <r>   -4.9021    1.0000 </r>
       <r>   -4.8895    1.0000 </r>
       <r>   -4.8790    1.0000 </r>
       <r>   -4.8735    1.0000 </r>
       <r>   -4.8601    1.0000 </r>
       <r>   -4.8529    1.0000 </r>
       <r>   -4.8473    1.0000 </r>
       <r>   -4.8447    1.0000 </r>
       <r>   -4.8398    1.0000 </r>
       <r>   -4.8383    1.0000 </r>
       <r>   -4.8351    1.0000 </r>
       <r>   -4.8329    1.0000 </r>
       <r>   -4.8133    0.9999 </r>
       <r>   -4.8069    0.9999 </r>
       <r>   -4.8036    0.9999 </r>
       <r>   -4.7952    0.9999 </r>
       <r>   -4.7895    0.9999 </r>
       <r>   -4.7760    0.9998 </r>
       <r>   -4.7718    0.9998 </r>
       <r>   -4.7681    0.9998 </r>
       <r>   -4.7592    0.9997 </r>
       <r>   -4.7535    0.9997 </r>
       <r>   -4.7347    0.9996 </r>
       <r>   -4.7307    0.9995 </r>
       <r>   -4.7271    0.9995 </r>
       <r>   -4.7193    0.9994 </r>
       <r>   -4.7094    0.9992 </r>
       <r>   -4.7021    0.9991 </r>
       <r>   -4.6953    0.9990 </r>
       <r>   -4.6904    0.9989 </r>
       <r>   -4.6861    0.9988 </r>
       <r>   -4.6853    0.9988 </r>
       <r>   -4.6764    0.9986 </r>
       <r>   -4.6709    0.9984 </r>
       <r>   -4.6669    0.9983 </r>
       <r>   -4.6611    0.9982 </r>
       <r>   -4.6604    0.9982 </r>
       <r>   -4.6570    0.9981 </r>
       <r>   -4.6525    0.9979 </r>
       <r>   -4.6502    0.9978 </r>
       <r>   -4.6485    0.9978 </r>
       <r>   -4.6467    0.9977 </r>
       <r>   -4.6418    0.9976 </r>
       <r>   -4.6379    0.9974 </r>
       <r>   -4.6295    0.9971 </r>
       <r>   -4.6253    0.9970 </r>
       <r>   -4.6129    0.9965 </r>
       <r>   -4.6090    0.9964 </r>
       <r>   -4.6047    0.9962 </r>
       <r>   -4.6013    0.9961 </r>
       <r>   -4.5998    0.9960 </r>
       <r>   -4.5957    0.9959 </r>
       <r>   -4.5946    0.9958 </r>
       <r>   -4.5853    0.9955 </r>
       <r>   -4.5809    0.9954 </r>
       <r>   -4.5781    0.9954 </r>
       <r>   -4.5749    0.9953 </r>
       <r>   -4.5740    0.9953 </r>
       <r>   -4.5722    0.9952 </r>
       <r>   -4.5628    0.9951 </r>
       <r>   -4.5595    0.9951 </r>
       <r>   -4.5572    0.9951 </r>
       <r>   -4.5531    0.9951 </r>
       <r>   -4.5516    0.9951 </r>
       <r>   -4.5501    0.9951 </r>
       <r>   -4.5327    0.9956 </r>
       <r>   -4.5174    0.9967 </r>
       <r>   -4.5133    0.9971 </r>
       <r>   -4.5104    0.9974 </r>
       <r>   -4.5072    0.9978 </r>
       <r>   -4.5034    0.9983 </r>
       <r>   -4.4969    0.9993 </r>
       <r>   -4.4943    0.9997 </r>
       <r>   -4.4923    1.0001 </r>
       <r>   -4.4862    1.0013 </r>
       <r>   -4.4806    1.0026 </r>
       <r>   -4.4776    1.0033 </r>
       <r>   -4.4669    1.0062 </r>
       <r>   -4.4645    1.0070 </r>
       <r>   -4.4606    1.0082 </r>
       <r>   -4.4526    1.0110 </r>
       <r>   -4.4512    1.0115 </r>
       <r>   -4.4473    1.0129 </r>
       <r>   -4.4419    1.0151 </r>
       <r>   -4.4380    1.0167 </r>
       <r>   -4.4296    1.0203 </r>
       <r>   -4.4279    1.0211 </r>
       <r>   -4.4228    1.0235 </r>
       <r>   -4.4174    1.0260 </r>
       <r>   -4.4137    1.0278 </r>
       <r>   -4.4121    1.0286 </r>
       <r>   -4.4081    1.0305 </r>
       <r>   -4.4039    1.0325 </r>
       <r>   -4.3986    1.0350 </r>
       <r>   -4.3858    1.0409 </r>
       <r>   -4.3806    1.0431 </r>
       <r>   -4.3709    1.0467 </r>
       <r>   -4.3687    1.0474 </r>
       <r>   -4.3656    1.0483 </r>
       <r>   -4.3557    1.0506 </r>
       <r>   -4.3508    1.0513 </r>
       <r>   -4.3407    1.0515 </r>
       <r>   -4.3401    1.0515 </r>
       <r>   -4.3368    1.0511 </r>
       <r>   -4.3359    1.0510 </r>
       <r>   -4.3349    1.0508 </r>
       <r>   -4.3307    1.0499 </r>
       <r>   -4.3300    1.0497 </r>
       <r>   -4.3276    1.0489 </r>
       <r>   -4.3261    1.0484 </r>
       <r>   -4.3250    1.0480 </r>
       <r>   -4.3243    1.0477 </r>
       <r>   -4.3205    1.0459 </r>
       <r>   -4.3122    1.0408 </r>
       <r>   -4.3104    1.0395 </r>
       <r>   -4.3071    1.0368 </r>
       <r>   -4.2981    1.0277 </r>
       <r>   -4.2920    1.0200 </r>
       <r>   -4.2897    1.0168 </r>
       <r>   -4.2871    1.0130 </r>
       <r>   -4.2866    1.0122 </r>
       <r>   -4.2840    1.0081 </r>
       <r>   -4.2820    1.0047 </r>
       <r>   -4.2749    0.9917 </r>
       <r>   -4.2700    0.9816 </r>
       <r>   -4.2672    0.9754 </r>
       <r>   -4.2654    0.9714 </r>
       <r>   -4.2632    0.9661 </r>
       <r>   -4.2624    0.9642 </r>
       <r>   -4.2560    0.9477 </r>
       <r>   -4.2557    0.9469 </r>
       <r>   -4.2538    0.9418 </r>
       <r>   -4.2522    0.9371 </r>
       <r>   -4.2486    0.9267 </r>
       <r>   -4.2469    0.9216 </r>
       <r>   -4.2450    0.9158 </r>
       <r>   -4.2429    0.9093 </r>
       <r>   -4.2418    0.9057 </r>
       <r>   -4.2398    0.8990 </r>
       <r>   -4.2366    0.8882 </r>
       <r>   -4.2325    0.8741 </r>
       <r>   -4.2264    0.8515 </r>
       <r>   -4.2239    0.8417 </r>
       <r>   -4.2234    0.8400 </r>
       <r>   -4.2216    0.8327 </r>
       <r>   -4.2141    0.8019 </r>
       <r>   -4.2108    0.7879 </r>
       <r>   -4.2006    0.7423 </r>
       <r>   -4.1894    0.6888 </r>
       <r>   -4.1835    0.6599 </r>
       <r>   -4.1803    0.6435 </r>
       <r>   -4.1773    0.6283 </r>
       <r>   -4.1756    0.6199 </r>
       <r>   -4.1746    0.6146 </r>
       <r>   -4.1604    0.5405 </r>
       <r>   -4.1515    0.4934 </r>
       <r>   -4.1401    0.4336 </r>
       <r>   -4.1340    0.4015 </r>
       <r>   -4.1312    0.3872 </r>
       <r>   -4.1291    0.3765 </r>
       <r>   -4.1195    0.3279 </r>
       <r>   -4.1177    0.3190 </r>
       <r>   -4.0435    0.0370 </r>
       <r>   -3.9698   -0.0509 </r>
       <r>   -3.8767   -0.0208 </r>
       <r>   -3.8263   -0.0029 </r>
       <r>   -3.8169   -0.0008 </r>
       <r>   -3.5920    0.0007 </r>
       <r>   -3.5199    0.0001 </r>
       <r>   -3.5012    0.0001 </r>
       <r>   -3.3393    0.0000 </r>
       <r>   -3.0801    0.0000 </r>
       <r>   -3.0668    0.0000 </r>
       <r>   -3.0502    0.0000 </r>
       <r>   -3.0375    0.0000 </r>
       <r>   -3.0196    0.0000 </r>
       <r>   -2.9595    0.0000 </r>
       <r>   -2.9501    0.0000 </r>
       <r>   -2.6414    0.0000 </r>
       <r>   -2.5903    0.0000 </r>
       <r>   -2.5279    0.0000 </r>
       <r>   -2.4120    0.0000 </r>
       <r>   -2.2895    0.0000 </r>
       <r>   -2.1224    0.0000 </r>
       <r>   -2.1172    0.0000 </r>
       <r>   -2.0997    0.0000 </r>
       <r>   -2.0071    0.0000 </r>
       <r>   -1.9726    0.0000 </r>
       <r>   -1.9149    0.0000 </r>
       <r>   -1.8875    0.0000 </r>
       <r>   -1.7579    0.0000 </r>
       <r>   -1.7479    0.0000 </r>
       <r>   -1.6661    0.0000 </r>
       <r>   -1.6507    0.0000 </r>
       <r>   -1.5839    0.0000 </r>
       <r>   -1.5576    0.0000 </r>
       <r>   -1.3876    0.0000 </r>
       <r>   -1.3357    0.0000 </r>
       <r>   -1.2447    0.0000 </r>
       <r>   -1.1970    0.0000 </r>
       <r>   -1.0769    0.0000 </r>
       <r>   -0.9950    0.0000 </r>
       <r>   -0.9865    0.0000 </r>
       <r>   -0.9704    0.0000 </r>
       <r>   -0.9534    0.0000 </r>
       <r>   -0.9400    0.0000 </r>
       <r>   -0.9161    0.0000 </r>
       <r>   -0.8707    0.0000 </r>
       <r>   -0.8184    0.0000 </r>
       <r>   -0.6568    0.0000 </r>
      </set>
     </set>
    </set>
   </array>
  </eigenvalues>
  <separator name="orbital magnetization" >
   <v name="MAGDIPOLOUT">      0.00000000      0.00000000      0.00000000</v>
  </separator>
  <dos>
   <i name="efermi">     -4.15272523 </i>
   <total>
    <array>
     <dimension dim="1">gridpoints</dimension>
     <dimension dim="2">spin</dimension>
     <field>energy</field>
     <field>total</field>
     <field>integrated</field>
     <set>
      <set comment="spin 1">
       <r>   -30.2439     0.0000     0.0000 </r>
       <r>   -30.1386     0.0000     0.0000 </r>
       <r>   -30.0333     0.0000     0.0000 </r>
       <r>   -29.9280     0.0000     0.0000 </r>
       <r>   -29.8227     0.0000     0.0000 </r>
       <r>   -29.7174     0.0000     0.0000 </r>
       <r>   -29.6121     0.0000     0.0000 </r>
       <r>   -29.5068     0.0000     0.0000 </r>
       <r>   -29.4015     0.0000     0.0000 </r>
       <r>   -29.2962     0.0000     0.0000 </r>
       <r>   -29.1910     0.0000     0.0000 </r>
       <r>   -29.0857     0.0000     0.0000 </r>
       <r>   -28.9804     0.0001     0.0000 </r>
       <r>   -28.8751     0.0025     0.0003 </r>
       <r>   -28.7698     0.0231     0.0027 </r>
       <r>   -28.6645     0.0645     0.0095 </r>
       <r>   -28.5592    -0.2021    -0.0118 </r>
       <r>   -28.4539    -0.8208    -0.0982 </r>
       <r>   -28.3486     1.8491     0.0965 </r>
       <r>   -28.2433     8.6328     1.0054 </r>
       <r>   -28.1381     8.5804     1.9089 </r>
       <r>   -28.0328     1.7929     2.0977 </r>
       <r>   -27.9275    -0.8214     2.0112 </r>
       <r>   -27.8222    -0.1960     1.9905 </r>
       <r>   -27.7169     0.0646     1.9973 </r>
       <r>   -27.6116     0.0227     1.9997 </r>
       <r>   -27.5063     0.0025     2.0000 </r>
       <r>   -27.4010     0.0001     2.0000 </r>
       <r>   -27.2957     0.0000     2.0000 </r>
       <r>   -27.1904     0.0000     2.0000 </r>
       <r>   -27.0852     0.0000     2.0000 </r>
       <r>   -26.9799     0.0000     2.0000 </r>
       <r>   -26.8746     0.0000     2.0000 </r>
       <r>   -26.7693     0.0000     2.0000 </r>
       <r>   -26.6640     0.0000     2.0000 </r>
       <r>   -26.5587     0.0000     2.0000 </r>
       <r>   -26.4534     0.0000     2.0000 </r>
       <r>   -26.3481     0.0000     2.0000 </r>
       <r>   -26.2428     0.0000     2.0000 </r>
       <r>   -26.1375     0.0000     2.0000 </r>
       <r>   -26.0322     0.0000     2.0000 </r>
       <r>   -25.9270     0.0000     2.0000 </r>
       <r>   -25.8217     0.0000     2.0000 </r>
       <r>   -25.7164     0.0000     2.0000 </r>
       <r>   -25.6111     0.0000     2.0000 </r>
       <r>   -25.5058     0.0000     2.0000 </r>
       <r>   -25.4005     0.0000     2.0000 </r>
       <r>   -25.2952     0.0000     2.0000 </r>
       <r>   -25.1899     0.0000     2.0000 </r>
       <r>   -25.0846     0.0000     2.0000 </r>
       <r>   -24.9793     0.0000     2.0000 </r>
       <r>   -24.8741     0.0000     2.0000 </r>
       <r>   -24.7688     0.0000     2.0000 </r>
       <r>   -24.6635     0.0000     2.0000 </r>
       <r>   -24.5582     0.0000     2.0000 </r>
       <r>   -24.4529     0.0000     2.0000 </r>
       <r>   -24.3476     0.0000     2.0000 </r>
       <r>   -24.2423     0.0000     2.0000 </r>
       <r>   -24.1370     0.0000     2.0000 </r>
       <r>   -24.0317     0.0000     2.0000 </r>
       <r>   -23.9264     0.0000     2.0000 </r>
       <r>   -23.8212     0.0000     2.0000 </r>
       <r>   -23.7159     0.0000     2.0000 </r>
       <r>   -23.6106     0.0000     2.0000 </r>
       <r>   -23.5053     0.0000     2.0000 </r>
       <r>   -23.4000     0.0000     2.0000 </r>
       <r>   -23.2947     0.0000     2.0000 </r>
       <r>   -23.1894     0.0000     2.0000 </r>
       <r>   -23.0841     0.0000     2.0000 </r>
       <r>   -22.9788     0.0000     2.0000 </r>
       <r>   -22.8735     0.0000     2.0000 </r>
       <r>   -22.7683     0.0000     2.0000 </r>
       <r>   -22.6630     0.0000     2.0000 </r>
       <r>   -22.5577     0.0000     2.0000 </r>
       <r>   -22.4524     0.0000     2.0000 </r>
       <r>   -22.3471     0.0000     2.0000 </r>
       <r>   -22.2418     0.0000     2.0000 </r>
       <r>   -22.1365     0.0000     2.0000 </r>
       <r>   -22.0312     0.0000     2.0000 </r>
       <r>   -21.9259     0.0000     2.0000 </r>
       <r>   -21.8206     0.0000     2.0000 </r>
       <r>   -21.7153     0.0000     2.0000 </r>
       <r>   -21.6101     0.0000     2.0000 </r>
       <r>   -21.5048     0.0000     2.0000 </r>
       <r>   -21.3995     0.0000     2.0000 </r>
       <r>   -21.2942     0.0000     2.0000 </r>
       <r>   -21.1889     0.0000     2.0000 </r>
       <r>   -21.0836     0.0000     2.0000 </r>
       <r>   -20.9783     0.0000     2.0000 </r>
       <r>   -20.8730     0.0000     2.0000 </r>
       <r>   -20.7677     0.0000     2.0000 </r>
       <r>   -20.6624     0.0000     2.0000 </r>
       <r>   -20.5572     0.0000     2.0000 </r>
       <r>   -20.4519     0.0000     2.0000 </r>
       <r>   -20.3466     0.0000     2.0000 </r>
       <r>   -20.2413     0.0000     2.0000 </r>
       <r>   -20.1360     0.0000     2.0000 </r>
       <r>   -20.0307     0.0000     2.0000 </r>
       <r>   -19.9254     0.0000     2.0000 </r>
       <r>   -19.8201     0.0000     2.0000 </r>
       <r>   -19.7148     0.0000     2.0000 </r>
       <r>   -19.6095     0.0000     2.0000 </r>
       <r>   -19.5043     0.0000     2.0000 </r>
       <r>   -19.3990     0.0000     2.0000 </r>
       <r>   -19.2937     0.0000     2.0000 </r>
       <r>   -19.1884     0.0000     2.0000 </r>
       <r>   -19.0831     0.0000     2.0000 </r>
       <r>   -18.9778     0.0000     2.0000 </r>
       <r>   -18.8725     0.0000     2.0000 </r>
       <r>   -18.7672     0.0000     2.0000 </r>
       <r>   -18.6619     0.0000     2.0000 </r>
       <r>   -18.5566     0.0000     2.0000 </r>
       <r>   -18.4514     0.0000     2.0000 </r>
       <r>   -18.3461     0.0000     2.0000 </r>
       <r>   -18.2408     0.0000     2.0000 </r>
       <r>   -18.1355     0.0000     2.0000 </r>
       <r>   -18.0302     0.0000     2.0000 </r>
       <r>   -17.9249     0.0000     2.0000 </r>
       <r>   -17.8196     0.0000     2.0000 </r>
       <r>   -17.7143     0.0000     2.0000 </r>
       <r>   -17.6090     0.0000     2.0000 </r>
       <r>   -17.5037     0.0000     2.0000 </r>
       <r>   -17.3984     0.0000     2.0000 </r>
       <r>   -17.2932     0.0000     2.0000 </r>
       <r>   -17.1879     0.0000     2.0000 </r>
       <r>   -17.0826     0.0000     2.0000 </r>
       <r>   -16.9773     0.0000     2.0000 </r>
       <r>   -16.8720     0.0000     2.0000 </r>
       <r>   -16.7667     0.0000     2.0000 </r>
       <r>   -16.6614     0.0000     2.0000 </r>
       <r>   -16.5561     0.0000     2.0000 </r>
       <r>   -16.4508     0.0000     2.0000 </r>
       <r>   -16.3455     0.0000     2.0000 </r>
       <r>   -16.2403     0.0000     2.0000 </r>
       <r>   -16.1350     0.0000     2.0000 </r>
       <r>   -16.0297     0.0000     2.0000 </r>
       <r>   -15.9244     0.0000     2.0000 </r>
       <r>   -15.8191     0.0000     2.0000 </r>
       <r>   -15.7138     0.0000     2.0000 </r>
       <r>   -15.6085     0.0000     2.0000 </r>
       <r>   -15.5032     0.0000     2.0000 </r>
       <r>   -15.3979     0.0000     2.0000 </r>
       <r>   -15.2926     0.0000     2.0000 </r>
       <r>   -15.1874     0.0000     2.0000 </r>
       <r>   -15.0821     0.0000     2.0000 </r>
       <r>   -14.9768     0.0000     2.0000 </r>
       <r>   -14.8715     0.0000     2.0000 </r>
       <r>   -14.7662     0.0000     2.0000 </r>
       <r>   -14.6609     0.0000     2.0000 </r>
       <r>   -14.5556     0.0000     2.0000 </r>
       <r>   -14.4503     0.0000     2.0000 </r>
       <r>   -14.3450     0.0000     2.0000 </r>
       <r>   -14.2397     0.0000     2.0000 </r>
       <r>   -14.1345     0.0010     2.0001 </r>
       <r>   -14.0292     0.0117     2.0013 </r>
       <r>   -13.9239     0.0554     2.0072 </r>
       <r>   -13.8186    -0.0310     2.0039 </r>
       <r>   -13.7133    -0.6909     1.9312 </r>
       <r>   -13.6080     0.2101     1.9533 </r>
       <r>   -13.5027     6.3626     2.6232 </r>
       <r>   -13.3974     9.8891     3.6644 </r>
       <r>   -13.2921     4.1111     4.0973 </r>
       <r>   -13.1868    -0.5577     4.0386 </r>
       <r>   -13.0815    -0.4535     3.9908 </r>
       <r>   -12.9763     0.0416     3.9952 </r>
       <r>   -12.8710     0.0394     3.9993 </r>
       <r>   -12.7657     0.0059     4.0000 </r>
       <r>   -12.6604     0.0004     4.0000 </r>
       <r>   -12.5551     0.0000     4.0000 </r>
       <r>   -12.4498     0.0000     4.0000 </r>
       <r>   -12.3445     0.0001     4.0000 </r>
       <r>   -12.2392     0.0013     4.0001 </r>
       <r>   -12.1339     0.0147     4.0017 </r>
       <r>   -12.0286     0.0601     4.0080 </r>
       <r>   -11.9234    -0.0737     4.0003 </r>
       <r>   -11.8181    -0.7578     3.9205 </r>
       <r>   -11.7128     0.6396     3.9878 </r>
       <r>   -11.6075     7.1755     4.7433 </r>
       <r>   -11.5022     9.6701     5.7615 </r>
       <r>   -11.3969     2.9379     6.0708 </r>
       <r>   -11.2916    -1.3632     5.9273 </r>
       <r>   -11.1863     3.2076     6.2650 </r>
       <r>   -11.0810     9.7757     7.2943 </r>
       <r>   -10.9757     6.9531     8.0264 </r>
       <r>   -10.8705     0.5606     8.0854 </r>
       <r>   -10.7652    -0.9013     7.9905 </r>
       <r>   -10.6599    -0.8781     7.8981 </r>
       <r>   -10.5546     1.5440     8.0606 </r>
       <r>   -10.4493     8.2828     8.9327 </r>
       <r>   -10.3440     8.9159     9.8715 </r>
       <r>   -10.2387     2.1780    10.1008 </r>
       <r>   -10.1334    -0.8115    10.0154 </r>
       <r>   -10.0281    -0.2380     9.9903 </r>
       <r>    -9.9228     0.0637     9.9970 </r>
       <r>    -9.8176     0.0254     9.9997 </r>
       <r>    -9.7123     0.0029    10.0000 </r>
       <r>    -9.6070     0.0002    10.0000 </r>
       <r>    -9.5017     0.0000    10.0000 </r>
       <r>    -9.3964     0.0000    10.0000 </r>
       <r>    -9.2911     0.0000    10.0000 </r>
       <r>    -9.1858     0.0000    10.0000 </r>
       <r>    -9.0805     0.0000    10.0000 </r>
       <r>    -8.9752     0.0000    10.0000 </r>
       <r>    -8.8699     0.0000    10.0000 </r>
       <r>    -8.7646     0.0000    10.0000 </r>
       <r>    -8.6594     0.0000    10.0000 </r>
       <r>    -8.5541     0.0000    10.0000 </r>
       <r>    -8.4488     0.0000    10.0000 </r>
       <r>    -8.3435     0.0000    10.0000 </r>
       <r>    -8.2382     0.0000    10.0000 </r>
       <r>    -8.1329     0.0000    10.0000 </r>
       <r>    -8.0276     0.0000    10.0000 </r>
       <r>    -7.9223     0.0000    10.0000 </r>
       <r>    -7.8170     0.0000    10.0000 </r>
       <r>    -7.7117     0.0000    10.0000 </r>
       <r>    -7.6065     0.0000    10.0000 </r>
       <r>    -7.5012     0.0000    10.0000 </r>
       <r>    -7.3959     0.0001    10.0000 </r>
       <r>    -7.2906     0.0026    10.0003 </r>
       <r>    -7.1853     0.0237    10.0028 </r>
       <r>    -7.0800     0.0680    10.0099 </r>
       <r>    -6.9747    -0.1797     9.9910 </r>
       <r>    -6.8694    -0.7583     9.9112 </r>
       <r>    -6.7641     1.6281    10.0826 </r>
       <r>    -6.6588     8.0006    10.9250 </r>
       <r>    -6.5536    11.4280    12.1282 </r>
       <r>    -6.4483    10.2293    13.2053 </r>
       <r>    -6.3430     4.1379    13.6410 </r>
       <r>    -6.2377     8.1647    14.5006 </r>
       <r>    -6.1324    31.7064    17.8390 </r>
       <r>    -6.0271    35.0703    21.5316 </r>
       <r>    -5.9218    19.9370    23.6307 </r>
       <r>    -5.8165    31.5345    26.9510 </r>
       <r>    -5.7112    71.1062    34.4378 </r>
       <r>    -5.6059   150.5239    50.2865 </r>
       <r>    -5.5007   258.9318    77.5495 </r>
       <r>    -5.3954   294.0054   108.5054 </r>
       <r>    -5.2901   245.0891   134.3109 </r>
       <r>    -5.1848   224.2615   157.9234 </r>
       <r>    -5.0795   278.6954   187.2673 </r>
       <r>    -4.9742   347.7486   223.8819 </r>
       <r>    -4.8689   339.0799   259.5837 </r>
       <r>    -4.7636   302.5691   291.4412 </r>
       <r>    -4.6583   350.0220   328.2951 </r>
       <r>    -4.5530   411.1895   371.5894 </r>
       <r>    -4.4477   416.1207   415.4028 </r>
       <r>    -4.3425   479.3482   465.8735 </r>
       <r>    -4.2372   550.8772   523.8755 </r>
       <r>    -4.1319   399.8306   565.9738 </r>
       <r>    -4.0266   131.7123   579.8418 </r>
       <r>    -3.9213    13.9093   581.3063 </r>
       <r>    -3.8160    20.4643   583.4610 </r>
       <r>    -3.7107    20.9388   585.6656 </r>
       <r>    -3.6054    15.6507   587.3135 </r>
       <r>    -3.5001    25.5539   590.0041 </r>
       <r>    -3.3948    23.1819   592.4449 </r>
       <r>    -3.2896     8.2886   593.3176 </r>
       <r>    -3.1843     5.2869   593.8743 </r>
       <r>    -3.0790    35.7924   597.6429 </r>
       <r>    -2.9737    62.0132   604.1723 </r>
       <r>    -2.8684    35.6305   607.9238 </r>
       <r>    -2.7631     2.8283   608.2216 </r>
       <r>    -2.6578     8.4246   609.1086 </r>
       <r>    -2.5525    25.8599   611.8314 </r>
       <r>    -2.4472    24.9980   614.4635 </r>
       <r>    -2.3419    15.6251   616.1086 </r>
       <r>    -2.2367    13.7516   617.5565 </r>
       <r>    -2.1314    26.2341   620.3187 </r>
       <r>    -2.0261    41.1743   624.6540 </r>
       <r>    -1.9208    40.4716   628.9153 </r>
       <r>    -1.8155    32.1956   632.3052 </r>
       <r>    -1.7102    35.3096   636.0229 </r>
       <r>    -1.6049    41.4716   640.3895 </r>
       <r>    -1.4996    29.7677   643.5237 </r>
       <r>    -1.3943    18.7731   645.5003 </r>
       <r>    -1.2890    23.5261   647.9774 </r>
       <r>    -1.1838    23.5069   650.4524 </r>
       <r>    -1.0785    27.2188   653.3183 </r>
       <r>    -0.9732    56.4455   659.2615 </r>
       <r>    -0.8679    67.2982   666.3473 </r>
       <r>    -0.7626    35.7391   670.1103 </r>
       <r>    -0.6573    11.2891   671.2989 </r>
       <r>    -0.5520     5.7872   671.9083 </r>
       <r>    -0.4467     1.4351   672.0594 </r>
       <r>    -0.3414    -0.5571   672.0007 </r>
       <r>    -0.2361    -0.1095   671.9892 </r>
       <r>    -0.1308     0.0762   671.9972 </r>
       <r>    -0.0256     0.0238   671.9997 </r>
       <r>     0.0797     0.0025   672.0000 </r>
       <r>     0.1850     0.0001   672.0000 </r>
       <r>     0.2903     0.0000   672.0000 </r>
       <r>     0.3956     0.0000   672.0000 </r>
       <r>     0.5009     0.0000   672.0000 </r>
       <r>     0.6062     0.0000   672.0000 </r>
       <r>     0.7115     0.0000   672.0000 </r>
       <r>     0.8168     0.0000   672.0000 </r>
       <r>     0.9221     0.0000   672.0000 </r>
       <r>     1.0273     0.0000   672.0000 </r>
       <r>     1.1326     0.0000   672.0000 </r>
       <r>     1.2379     0.0000   672.0000 </r>
       <r>     1.3432     0.0000   672.0000 </r>
      </set>
     </set>
    </array>
   </total>
  </dos>
 </calculation>
 <structure name="finalpos" >
  <crystal>
   <varray name="basis" >
    <v>      30.00000000       0.00000000       0.00000000 </v>
    <v>       0.00000000      30.00000000       0.00000000 </v>
    <v>       0.00000000       0.00000000      30.00000000 </v>
   </varray>
   <i name="volume">  27000.00000000 </i>
   <varray name="rec_basis" >
    <v>       0.03333333       0.00000000       0.00000000 </v>
    <v>       0.00000000       0.03333333       0.00000000 </v>
    <v>       0.00000000       0.00000000       0.03333333 </v>
   </varray>
  </crystal>
  <varray name="positions" >
   <v>       0.44576020       0.32826710       0.41691983 </v>
   <v>       0.67173288       0.55423978       0.41691983 </v>
   <v>       0.55423980       0.32826710       0.41691983 </v>
   <v>       0.32826712       0.55423978       0.41691983 </v>
   <v>       0.50000000       0.38250690       0.34021317 </v>
   <v>       0.50000000       0.38250690       0.65978680 </v>
   <v>       0.50000000       0.27609440       0.50000000 </v>
   <v>       0.27609443       0.49999998       0.50000000 </v>
   <v>       0.72390557       0.49999998       0.50000000 </v>
   <v>       0.50000000       0.72390555       0.50000000 </v>
   <v>       0.61195280       0.38804720       0.34167483 </v>
   <v>       0.61195280       0.38804720       0.65832513 </v>
   <v>       0.38804722       0.61195278       0.34167483 </v>
   <v>       0.38804722       0.61195278       0.65832513 </v>
   <v>       0.38804720       0.38804720       0.34167483 </v>
   <v>       0.38804720       0.38804720       0.65832513 </v>
   <v>       0.61195278       0.61195278       0.34167483 </v>
   <v>       0.61195278       0.61195278       0.65832513 </v>
   <v>       0.44576020       0.32826710       0.58308023 </v>
   <v>       0.67173288       0.55423978       0.58308023 </v>
   <v>       0.55791699       0.44208301       0.41809300 </v>
   <v>       0.32826705       0.44576024       0.41691983 </v>
   <v>       0.55423973       0.67173293       0.41691983 </v>
   <v>       0.55423980       0.32826710       0.58308023 </v>
   <v>       0.32826712       0.55423978       0.58308023 </v>
   <v>       0.67173295       0.44576024       0.41691983 </v>
   <v>       0.44576027       0.67173293       0.41691983 </v>
   <v>       0.44208301       0.44208301       0.41809300 </v>
   <v>       0.50000000       0.38416601       0.50000000 </v>
   <v>       0.61749315       0.50000005       0.34021317 </v>
   <v>       0.61749315       0.50000005       0.65978680 </v>
   <v>       0.38250685       0.50000005       0.34021317 </v>
   <v>       0.38250685       0.50000005       0.65978680 </v>
   <v>       0.38317830       0.38317830       0.50000000 </v>
   <v>       0.61682172       0.61682172       0.50000000 </v>
   <v>       0.61682170       0.38317830       0.50000000 </v>
   <v>       0.38317828       0.61682172       0.50000000 </v>
   <v>       0.50000000       0.50000000       0.33478917 </v>
   <v>       0.50000000       0.50000000       0.66521087 </v>
   <v>       0.32826705       0.44576024       0.58308023 </v>
   <v>       0.55423973       0.67173293       0.58308023 </v>
   <v>       0.55791699       0.44208301       0.58190703 </v>
   <v>       0.44208298       0.55791702       0.41809300 </v>
   <v>       0.44208301       0.44208301       0.58190703 </v>
   <v>       0.67173295       0.44576024       0.58308023 </v>
   <v>       0.44576027       0.67173293       0.58308023 </v>
   <v>       0.55791702       0.55791702       0.41809300 </v>
   <v>       0.38416599       0.50000002       0.50000000 </v>
   <v>       0.61583401       0.50000002       0.50000000 </v>
   <v>       0.50000000       0.61749319       0.34021317 </v>
   <v>       0.50000000       0.61749319       0.65978680 </v>
   <v>       0.50000000       0.50000000       0.50000000 </v>
   <v>       0.44208298       0.55791702       0.58190703 </v>
   <v>       0.55791702       0.55791702       0.58190703 </v>
   <v>       0.50000000       0.61583404       0.50000000 </v>
   <v>       0.43038183       0.65619590       0.35156547 </v>
   <v>       0.41882203       0.68213157       0.32691853 </v>
  </varray>
  <varray name="selective"  type="logical" >
   <v type="logical" >  F  F  F </v>
   <v type="logical" >  F  F  F </v>
   <v type="logical" >  F  F  F </v>
   <v type="logical" >  F  F  F </v>
   <v type="logical" >  F  F  F </v>
   <v type="logical" >  F  F  F </v>
   <v type="logical" >  F  F  F </v>
   <v type="logical" >  F  F  F </v>
   <v type="logical" >  F  F  F </v>
   <v type="logical" >  F  F  F </v>
   <v type="logical" >  F  F  F </v>
   <v type="logical" >  F  F  F </v>
   <v type="logical" >  F  F  F </v>
   <v type="logical" >  F  F  F </v>
   <v type="logical" >  F  F  F </v>
   <v type="logical" >  F  F  F </v>
   <v type="logical" >  F  F  F </v>
   <v type="logical" >  F  F  F </v>
   <v type="logical" >  F  F  F </v>
   <v type="logical" >  F  F  F </v>
   <v type="logical" >  F  F  F </v>
   <v type="logical" >  F  F  F </v>
   <v type="logical" >  F  F  F </v>
   <v type="logical" >  F  F  F </v>
   <v type="logical" >  F  F  F </v>
   <v type="logical" >  F  F  F </v>
   <v type="logical" >  F  F  F </v>
   <v type="logical" >  F  F  F </v>
   <v type="logical" >  F  F  F </v>
   <v type="logical" >  F  F  F </v>
   <v type="logical" >  F  F  F </v>
   <v type="logical" >  F  F  F </v>
   <v type="logical" >  F  F  F </v>
   <v type="logical" >  F  F  F </v>
   <v type="logical" >  F  F  F </v>
   <v type="logical" >  F  F  F </v>
   <v type="logical" >  F  F  F </v>
   <v type="logical" >  F  F  F </v>
   <v type="logical" >  F  F  F </v>
   <v type="logical" >  F  F  F </v>
   <v type="logical" >  F  F  F </v>
   <v type="logical" >  F  F  F </v>
   <v type="logical" >  F  F  F </v>
   <v type="logical" >  F  F  F </v>
   <v type="logical" >  F  F  F </v>
   <v type="logical" >  F  F  F </v>
   <v type="logical" >  F  F  F </v>
   <v type="logical" >  F  F  F </v>
   <v type="logical" >  F  F  F </v>
   <v type="logical" >  F  F  F </v>
   <v type="logical" >  F  F  F </v>
   <v type="logical" >  F  F  F </v>
   <v type="logical" >  F  F  F </v>
   <v type="logical" >  F  F  F </v>
   <v type="logical" >  F  F  F </v>
   <v type="logical" >  F  F  F </v>
   <v type="logical" >  F  F  F </v>
  </varray>
  <nose>
   <v>      -3.00000000       0.00000000       0.00010000       0.00010000 </v>
  </nose>
 </structure>
</modeling>
