 running on    1 total cores
 distrk:  each k-point on    1 cores,    1 groups
 distr:  one band on    1 cores,    1 groups
 using from now: INCAR     
 vasp.5.4.4.18Apr17-6-g9f103f2a35 (build Sep 03 2018 23:53:05) complex          
  
 POSCAR found type information on POSCAR  Pd C  O 
 POSCAR found :  3 types and      57 ions
 scaLAPACK will be used

 ----------------------------------------------------------------------------- 
|                                                                             |
|  ADVICE TO THIS USER RUNNING 'VASP/VAMP'   (HEAR YOUR MASTER'S VOICE ...):  |
|                                                                             |
|      You enforced a specific xc-type in the INCAR file,                     |
|      a different type was found on the POTCAR file                          |
|          I HOPE YOU KNOW, WHAT YOU ARE  DOING                               |
|                                                                             |
 ----------------------------------------------------------------------------- 

 LDA part: xc-table for Pade appr. of Perdew
 POSCAR, INCAR and KPOINTS ok, starting setup
 FFT: planning ...
 WAVECAR not read
 entering main loop
       N       E                     dE             d eps       ncg     rms          rms(c)
DAV:   1     0.439934860030E+04    0.43993E+04   -0.10050E+05   688   0.815E+02
DAV:   2     0.203153364567E+04   -0.23678E+04   -0.21278E+04  1208   0.105E+02
DAV:   3     0.241230062892E+03   -0.17903E+04   -0.16794E+04  1000   0.922E+01
DAV:   4    -0.132868787280E+03   -0.37410E+03   -0.31930E+03   840   0.439E+01
DAV:   5    -0.179710998234E+03   -0.46842E+02   -0.38565E+02  1048   0.148E+01    0.171E+01
RMM:   6    -0.179075645808E+03    0.63535E+00   -0.60302E+01   724   0.923E+00    0.217E+01
RMM:   7    -0.180803484180E+03   -0.17278E+01   -0.22095E+01   832   0.498E+00    0.207E+01
RMM:   8    -0.185385216654E+03   -0.45817E+01   -0.99411E+00   751   0.410E+00    0.296E+01
RMM:   9    -0.183468792732E+03    0.19164E+01   -0.51409E+00   760   0.312E+00    0.273E+01
RMM:  10    -0.180695195044E+03    0.27736E+01   -0.36853E+00   733   0.282E+00    0.267E+01
RMM:  11    -0.178627138439E+03    0.20681E+01   -0.20551E+00   730   0.207E+00    0.194E+01
RMM:  12    -0.177057936628E+03    0.15692E+01   -0.20006E+00   716   0.208E+00    0.146E+01
RMM:  13    -0.176684661727E+03    0.37327E+00   -0.17001E+00   711   0.193E+00    0.177E+01
RMM:  14    -0.177649774867E+03   -0.96511E+00   -0.14923E+00   714   0.181E+00    0.301E+01
RMM:  15    -0.177030111101E+03    0.61966E+00   -0.12430E+00   721   0.160E+00    0.237E+01
RMM:  16    -0.176307507080E+03    0.72260E+00   -0.91664E-01   716   0.142E+00    0.163E+01
RMM:  17    -0.175898827489E+03    0.40868E+00   -0.81696E-01   717   0.136E+00    0.163E+01
RMM:  18    -0.175347811531E+03    0.55102E+00   -0.56152E-01   702   0.111E+00    0.101E+01
RMM:  19    -0.175219430525E+03    0.12838E+00   -0.52028E-01   694   0.108E+00    0.951E+00
RMM:  20    -0.175173576208E+03    0.45854E-01   -0.37017E-01   701   0.931E-01    0.936E+00
RMM:  21    -0.174962101154E+03    0.21148E+00   -0.28195E-01   694   0.820E-01    0.783E+00
RMM:  22    -0.174812276307E+03    0.14982E+00   -0.18234E-01   696   0.661E-01    0.668E+00
RMM:  23    -0.174707314703E+03    0.10496E+00   -0.13128E-01   697   0.556E-01    0.598E+00
RMM:  24    -0.174653553938E+03    0.53761E-01   -0.96543E-02   697   0.473E-01    0.627E+00
RMM:  25    -0.174584728584E+03    0.68825E-01   -0.89545E-02   693   0.460E-01    0.423E+00
RMM:  26    -0.174565965359E+03    0.18763E-01   -0.80761E-02   695   0.435E-01    0.368E+00
RMM:  27    -0.174526373915E+03    0.39591E-01   -0.55601E-02   696   0.380E-01    0.324E+00
RMM:  28    -0.174520456236E+03    0.59177E-02   -0.38539E-02   694   0.316E-01    0.313E+00
RMM:  29    -0.174495033290E+03    0.25423E-01   -0.33911E-02   693   0.299E-01    0.229E+00
RMM:  30    -0.174477139532E+03    0.17894E-01   -0.22751E-02   692   0.254E-01    0.174E+00
RMM:  31    -0.174470172292E+03    0.69672E-02   -0.13832E-02   695   0.194E-01    0.150E+00
RMM:  32    -0.174464199489E+03    0.59728E-02   -0.91269E-03   691   0.159E-01    0.131E+00
RMM:  33    -0.174458606614E+03    0.55929E-02   -0.58979E-03   690   0.129E-01    0.102E+00
RMM:  34    -0.174456250891E+03    0.23557E-02   -0.32504E-03   693   0.947E-02    0.729E-01
RMM:  35    -0.174456311938E+03   -0.61047E-04   -0.32500E-03   691   0.867E-02    0.754E-01
RMM:  36    -0.174455653407E+03    0.65853E-03   -0.22019E-03   688   0.767E-02    0.544E-01
RMM:  37    -0.174456719505E+03   -0.10661E-02   -0.16462E-03   689   0.646E-02    0.533E-01
RMM:  38    -0.174457756388E+03   -0.10369E-02   -0.13136E-03   686   0.595E-02    0.410E-01
RMM:  39    -0.174459522885E+03   -0.17665E-02   -0.10543E-03   687   0.527E-02    0.387E-01
RMM:  40    -0.174461202524E+03   -0.16796E-02   -0.72381E-04   669   0.419E-02    0.324E-01
RMM:  41    -0.174462462214E+03   -0.12597E-02   -0.41255E-04   523   0.333E-02    0.247E-01
RMM:  42    -0.174463976059E+03   -0.15138E-02   -0.33077E-04   450   0.291E-02    0.215E-01
RMM:  43    -0.174466385715E+03   -0.24097E-02   -0.36108E-04   465   0.297E-02    0.184E-01
RMM:  44    -0.174467976066E+03   -0.15904E-02   -0.25991E-04   413   0.249E-02    0.141E-01
RMM:  45    -0.174470921592E+03   -0.29455E-02   -0.41663E-04   506   0.270E-02    0.159E-01
RMM:  46    -0.174472787229E+03   -0.18656E-02   -0.27978E-04   428   0.228E-02    0.166E-01
RMM:  47    -0.174475261156E+03   -0.24739E-02   -0.39020E-04   493   0.235E-02    0.114E-01
RMM:  48    -0.174476318731E+03   -0.10576E-02   -0.17996E-04   414   0.174E-02    0.999E-02
RMM:  49    -0.174478166148E+03   -0.18474E-02   -0.26853E-04   437   0.187E-02    0.101E-01
RMM:  50    -0.174478765934E+03   -0.59979E-03   -0.11461E-04   414   0.132E-02    0.612E-02
RMM:  51    -0.174479327478E+03   -0.56154E-03   -0.68220E-05   409   0.103E-02    0.631E-02
RMM:  52    -0.174480016100E+03   -0.68862E-03   -0.52397E-05   404   0.912E-03    0.309E-02
RMM:  53    -0.174480318835E+03   -0.30274E-03   -0.25180E-05   372   0.617E-03    0.293E-02
RMM:  54    -0.174481217416E+03   -0.89858E-03   -0.30076E-05   395   0.659E-03    0.310E-02
RMM:  55    -0.174481546534E+03   -0.32912E-03   -0.13594E-05   278   0.489E-03    0.174E-02
RMM:  56    -0.174482005905E+03   -0.45937E-03   -0.10943E-05   260   0.473E-03    0.225E-02
RMM:  57    -0.174482328896E+03   -0.32299E-03   -0.95170E-06   235   0.442E-03    0.124E-02
RMM:  58    -0.174482576461E+03   -0.24756E-03   -0.74316E-06   201   0.405E-03    0.134E-02
RMM:  59    -0.174482864178E+03   -0.28772E-03   -0.72616E-06   176   0.402E-03    0.727E-03
RMM:  60    -0.174483007465E+03   -0.14329E-03   -0.71575E-06   177   0.389E-03    0.793E-03
RMM:  61    -0.174483150514E+03   -0.14305E-03   -0.66360E-06   160   0.368E-03    0.649E-03
RMM:  62    -0.174483250395E+03   -0.99881E-04   -0.49105E-06   141   0.359E-03
   1 F= -.17448325E+03 E0= -.17447178E+03  d E =-.458859E-01
================================= SLURM INFO ===================================
Command: run-cluster -n 1 -m 10000 -j 000462_vasp --same-node /opt/VASP/vasp
Exit code: 0
Job name: 000462_vasp
Job time: 0 days 5h:14m:38s
MPI task count: 1
Working dir: /home/pashkov/pyFitIt/pyfitit/data/adaptive_pd_co_new_2/sample/000462
Job was running on nodes: h15
Task per node: 1
       JobID     MaxRSS  MaxDiskRead MaxDiskWrite    Elapsed    JobName 
------------ ---------- ------------ ------------ ---------- ---------- 
107073                                              05:14:39 000462_va+ 
107073.batch                                        05:14:39      batch 
